# Forces      
# CofR        : (0.000000e+00 0.000000e+00 0.000000e+00)
# Time        forces(pressure viscous)	moments(pressure viscous)
0             	((0.000000e+00 0.000000e+00 0.000000e+00) (3.515415e-10 8.383381e-13 3.801207e-05)) ((0.000000e+00 0.000000e+00 0.000000e+00) (-2.220339e-13 2.152933e-11 -5.270645e-16))
0.012         	((4.878612e-07 8.374394e-08 3.266199e-03) (2.147278e-11 3.846145e-10 3.173002e-05)) ((4.483328e-12 3.291979e-09 -2.311697e-13) (1.082816e-11 -5.599037e-11 -3.038136e-13))
0.0264        	((2.503552e-08 -9.585760e-08 -3.024826e-04) (8.539732e-11 1.668685e-10 2.418567e-05)) ((-6.355289e-12 -3.785752e-10 -1.604829e-12) (2.411861e-11 -6.091214e-11 -2.208502e-12))
0.04368       	((-1.297817e-07 1.351867e-07 -7.737626e-04) (6.135969e-10 2.103187e-10 1.667761e-05)) ((3.253306e-11 -1.341074e-09 7.259365e-13) (3.126188e-11 -5.850527e-11 -5.825331e-12))
0.064416      	((1.017162e-07 -2.265675e-08 -1.041049e-05) (1.283761e-09 1.020518e-09 1.180720e-05)) ((3.830375e-12 -2.368697e-11 -1.114911e-12) (4.643804e-11 -7.151868e-11 -7.411922e-12))
0.0892992     	((4.557738e-08 7.790462e-09 1.899146e-05) (1.615978e-09 1.506277e-09 9.517744e-06)) ((-9.888766e-12 8.187540e-11 4.394707e-13) (7.252101e-11 -6.052462e-11 -6.964084e-12))
0.119159      	((-9.389674e-09 -2.285720e-08 -1.683924e-06) (1.457908e-09 1.331448e-09 8.055947e-06)) ((-7.520234e-13 1.039699e-11 -9.572655e-13) (6.669516e-11 -6.450299e-11 -8.714061e-12))
0.154991      	((1.860222e-09 -1.077298e-08 -2.340053e-06) (1.409689e-09 1.133899e-09 6.911549e-06)) ((-1.102205e-12 2.019041e-12 1.602993e-13) (5.865874e-11 -7.649513e-11 -1.136639e-11))
0.197989      	((2.342188e-08 -1.564232e-08 2.890037e-07) (1.583750e-09 1.067466e-09 6.062039e-06)) ((-9.356642e-13 -5.530853e-12 -1.502765e-13) (6.142569e-11 -8.252576e-11 -1.110429e-11))
0.249587      	((6.610699e-09 -9.288825e-09 8.488954e-07) (1.706243e-09 1.034257e-09 5.372784e-06)) ((-5.084142e-13 -5.356343e-12 -8.443927e-14) (5.842892e-11 -8.920939e-11 -8.863516e-12))
0.311504      	((2.495420e-08 -4.718052e-09 6.659215e-07) (1.851669e-09 1.172812e-09 4.784246e-06)) ((-5.431409e-13 -1.154588e-11 -4.863381e-14) (6.529260e-11 -1.075449e-10 -7.853294e-12))
0.385805      	((5.894676e-09 -6.226920e-09 8.723678e-07) (1.885376e-09 1.344168e-09 4.272986e-06)) ((-5.910729e-15 -9.975158e-12 -5.275100e-14) (7.550629e-11 -1.175496e-10 -8.102534e-12))
0.474966      	((1.471294e-08 -8.152641e-10 7.289813e-07) (1.859769e-09 1.432032e-09 3.826975e-06)) ((-2.399774e-14 -1.270927e-11 -4.884090e-14) (8.372778e-11 -1.276160e-10 -7.645762e-12))
0.581959      	((3.406452e-09 -3.393832e-09 7.753424e-07) (1.751172e-09 1.445833e-09 3.435398e-06)) ((4.953863e-13 -1.051086e-11 -2.135207e-14) (8.867674e-11 -1.287861e-10 -6.420669e-12))
0.710351      	((1.212052e-08 -4.529647e-09 6.642076e-07) (1.718310e-09 1.442660e-09 3.094520e-06)) ((6.227650e-13 -1.177467e-11 -2.596122e-14) (9.163749e-11 -1.262192e-10 -5.214587e-12))
0.864421      	((7.179822e-09 4.461437e-10 6.523930e-07) (1.746321e-09 1.454529e-09 2.801883e-06)) ((4.805799e-13 -9.851778e-12 -1.664764e-14) (9.639603e-11 -1.289504e-10 -4.350858e-12))
1.049306      	((7.105256e-09 -6.048359e-09 6.010545e-07) (1.774642e-09 1.373542e-09 2.552349e-06)) ((1.063558e-12 -9.596987e-12 2.030463e-14) (9.093395e-11 -1.292870e-10 -3.476541e-12))
1.271167      	((4.964821e-09 1.181716e-09 5.871103e-07) (1.755329e-09 1.353934e-09 2.340334e-06)) ((5.034456e-13 -8.127918e-12 2.746836e-15) (9.157663e-11 -1.284117e-10 -2.729895e-12))
1.5374        	((1.209999e-09 1.100260e-09 5.534955e-07) (1.652149e-09 1.404732e-09 2.158676e-06)) ((7.316252e-13 -7.662918e-12 2.104892e-14) (9.673541e-11 -1.242670e-10 -2.140320e-12))
1.85688       	((1.919387e-09 -3.060614e-09 5.467811e-07) (1.538570e-09 1.373677e-09 2.000648e-06)) ((7.317565e-13 -6.109787e-12 -2.767268e-14) (9.297459e-11 -1.168401e-10 -2.226114e-12))
2.240256      	((1.274625e-09 -1.344106e-10 5.188330e-07) (1.401913e-09 1.279673e-09 1.860854e-06)) ((4.658214e-13 -5.269322e-12 -3.148793e-14) (8.824638e-11 -1.067538e-10 -2.099848e-12))
2.700307      	((5.653795e-10 -2.608837e-09 5.086733e-07) (1.254190e-09 1.104512e-09 1.734286e-06)) ((4.192138e-13 -4.194088e-12 -6.346733e-14) (7.695122e-11 -9.356504e-11 -2.052886e-12))
3.252369      	((8.224056e-10 -8.358316e-10 4.798694e-07) (1.012665e-09 8.584250e-10 1.618045e-06)) ((3.215989e-13 -3.387469e-12 -5.233303e-14) (6.046287e-11 -7.827318e-11 -2.053190e-12))
3.914842      	((1.166276e-09 -8.571494e-10 4.584765e-07) (7.135858e-10 5.993889e-10 1.510098e-06)) ((1.546323e-13 -2.819112e-12 -5.661526e-14) (4.554361e-11 -6.063068e-11 -1.806790e-12))
4.709811      	((-1.511609e-10 -6.840990e-10 4.306799e-07) (3.536337e-10 3.182839e-10 1.409398e-06)) ((1.289275e-13 -2.399571e-12 -2.964755e-14) (2.809220e-11 -4.008458e-11 -1.227301e-12))
5.663773      	((9.526095e-10 -5.513194e-10 4.062392e-07) (6.774180e-11 1.879434e-11 1.315237e-06)) ((1.044398e-13 -1.950510e-12 -3.594455e-14) (9.587971e-12 -2.220205e-11 -5.239670e-13))
6.808528      	((-5.445199e-10 -5.409681e-10 3.756461e-07) (-1.323318e-10 -2.613306e-10 1.227625e-06)) ((1.249113e-13 -1.767052e-12 -2.335536e-14) (-8.732874e-12 -7.496658e-12 -1.387149e-13))
8.182233      	((3.395161e-10 -5.695268e-10 3.489679e-07) (-3.034797e-10 -5.161084e-10 1.146399e-06)) ((8.042842e-14 -1.489976e-12 -3.142099e-14) (-2.436018e-11 2.994235e-12 -1.928740e-13))
9.83068       	((-9.985734e-10 -9.231709e-10 3.197194e-07) (-4.320017e-10 -7.025321e-10 1.071664e-06)) ((8.551715e-14 -1.502741e-12 -1.766119e-14) (-3.580613e-11 1.182027e-11 -1.818009e-13))
11.808816     	((-1.094354e-10 -7.224654e-10 2.939340e-07) (-5.245398e-10 -8.054298e-10 1.002917e-06)) ((5.235574e-14 -1.318748e-12 -2.064641e-14) (-4.218164e-11 1.816451e-11 -2.323143e-13))
14.182579     	((-6.889360e-10 -9.092698e-10 2.673529e-07) (-5.784034e-10 -8.521033e-10 9.400428e-07)) ((5.611259e-14 -1.355502e-12 -1.315297e-14) (-4.488813e-11 2.213700e-11 -2.684976e-13))
17.031095     	((-4.199034e-10 -7.505960e-10 2.442513e-07) (-6.158807e-10 -8.723328e-10 8.828811e-07)) ((5.267491e-14 -1.286788e-12 -1.629097e-14) (-4.550569e-11 2.430350e-11 -1.270246e-13))
20.449314     	((-4.675610e-10 -8.185724e-10 2.219556e-07) (-6.415730e-10 -8.789460e-10 8.311824e-07)) ((5.975632e-14 -1.331579e-12 -1.302673e-14) (-4.556741e-11 2.652314e-11 -9.777794e-15))
24.551176     	((-3.465521e-10 -7.657957e-10 2.023850e-07) (-6.707277e-10 -8.801241e-10 7.845189e-07)) ((6.450838e-14 -1.319128e-12 -1.421521e-14) (-4.553147e-11 2.895435e-11 -8.991246e-14))
29.473411     	((-3.424862e-10 -7.739542e-10 1.847757e-07) (-6.865644e-10 -8.727753e-10 7.424171e-07)) ((7.512112e-14 -1.354048e-12 -1.090546e-14) (-4.503844e-11 3.025518e-11 -2.762980e-13))
35.380094     	((-3.285394e-10 -7.164016e-10 1.703452e-07) (-6.857079e-10 -8.509686e-10 7.045231e-07)) ((7.088651e-14 -1.332893e-12 -1.049354e-14) (-4.353185e-11 3.028805e-11 -3.935233e-13))
42.468112     	((-3.233298e-10 -6.797913e-10 1.583194e-07) (-6.710371e-10 -8.195279e-10 6.703977e-07)) ((6.666337e-14 -1.330274e-12 -9.174885e-15) (-4.133823e-11 2.934960e-11 -5.464702e-13))
50.973735     	((-2.867224e-10 -6.318255e-10 1.478629e-07) (-6.438927e-10 -7.849183e-10 6.398141e-07)) ((6.313316e-14 -1.312028e-12 -8.583622e-15) (-3.896544e-11 2.793064e-11 -5.965735e-13))
61.180482     	((-2.271803e-10 -5.406215e-10 1.382903e-07) (-6.147413e-10 -7.498497e-10 6.125825e-07)) ((6.305030e-14 -1.309614e-12 -7.857552e-15) (-3.665438e-11 2.644401e-11 -6.596857e-13))
73.428578     	((-1.963860e-10 -5.545105e-10 1.300741e-07) (-5.925477e-10 -7.199255e-10 5.885123e-07)) ((6.072092e-14 -1.308921e-12 -8.632382e-15) (-3.476234e-11 2.538805e-11 -7.285559e-13))
88.126294     	((-1.863760e-10 -4.996440e-10 1.225644e-07) (-5.775321e-10 -6.964453e-10 5.674127e-07)) ((5.759059e-14 -1.311329e-12 -8.630313e-15) (-3.339334e-11 2.494674e-11 -8.007470e-13))
105.763553    	((-1.315645e-10 -5.056756e-10 1.162906e-07) (-5.691092e-10 -6.816471e-10 5.490558e-07)) ((5.505272e-14 -1.308631e-12 -8.386269e-15) (-3.268981e-11 2.514332e-11 -8.950378e-13))
126.928263    	((-1.357951e-10 -4.713498e-10 1.107091e-07) (-5.668531e-10 -6.725935e-10 5.332559e-07)) ((5.272866e-14 -1.313740e-12 -8.203391e-15) (-3.248428e-11 2.580237e-11 -9.742986e-13))
152.325916    	((-1.059985e-10 -4.808788e-10 1.062143e-07) (-5.650870e-10 -6.675742e-10 5.198447e-07)) ((5.074744e-14 -1.318565e-12 -8.221756e-15) (-3.256391e-11 2.651377e-11 -1.051509e-12))
182.803099    	((-1.120753e-10 -4.865831e-10 1.022129e-07) (-5.679592e-10 -6.682413e-10 5.087231e-07)) ((4.919994e-14 -1.328868e-12 -8.392446e-15) (-3.298022e-11 2.746545e-11 -1.133472e-12))
219.375719    	((-8.854082e-11 -5.016833e-10 9.898883e-08) (-5.758835e-10 -6.744978e-10 4.997811e-07)) ((4.810567e-14 -1.346145e-12 -8.426995e-15) (-3.372661e-11 2.873741e-11 -1.207918e-12))
263.262863    	((-9.269645e-11 -4.978319e-10 9.633313e-08) (-5.880922e-10 -6.854886e-10 4.929067e-07)) ((4.760189e-14 -1.368028e-12 -8.620565e-15) (-3.482604e-11 3.031908e-11 -1.265891e-12))
314.641462    	((-8.113770e-11 -5.055610e-10 9.422870e-08) (-6.045648e-10 -7.012332e-10 4.879623e-07)) ((4.726335e-14 -1.388053e-12 -8.766290e-15) (-3.621182e-11 3.206036e-11 -1.298452e-12))
373.605143    	((-9.219288e-11 -5.130658e-10 9.256159e-08) (-6.228903e-10 -7.203638e-10 4.847313e-07)) ((4.752637e-14 -1.409035e-12 -8.919036e-15) (-3.779360e-11 3.384408e-11 -1.301529e-12))
440.221102    	((-1.038611e-10 -5.216403e-10 9.130608e-08) (-6.422215e-10 -7.403896e-10 4.829584e-07)) ((4.806985e-14 -1.432615e-12 -9.269086e-15) (-3.945129e-11 3.568141e-11 -1.276648e-12))
514.531241    	((-1.165020e-10 -5.263657e-10 9.050413e-08) (-6.601806e-10 -7.585087e-10 4.823288e-07)) ((4.886042e-14 -1.452937e-12 -9.668175e-15) (-4.092959e-11 3.736066e-11 -1.235971e-12))
591.54968     	((-1.324938e-10 -5.353869e-10 9.008289e-08) (-6.743940e-10 -7.728645e-10 4.824830e-07)) ((4.932691e-14 -1.467317e-12 -9.986302e-15) (-4.208656e-11 3.870312e-11 -1.197510e-12))
668.46842     	((-1.510554e-10 -5.411378e-10 8.998680e-08) (-6.852195e-10 -7.825726e-10 4.830695e-07)) ((5.018336e-14 -1.474749e-12 -9.923446e-15) (-4.285971e-11 3.971355e-11 -1.177438e-12))
745.232135    	((-1.693075e-10 -5.460337e-10 9.010960e-08) (-6.920093e-10 -7.884374e-10 4.838109e-07)) ((5.049779e-14 -1.477668e-12 -9.713580e-15) (-4.330438e-11 4.037474e-11 -1.183032e-12))
821.834647    	((-1.767164e-10 -5.473487e-10 9.032309e-08) (-6.960094e-10 -7.915766e-10 4.845217e-07)) ((5.085641e-14 -1.478093e-12 -9.548923e-15) (-4.350855e-11 4.076757e-11 -1.196002e-12))
898.299921    	((-1.715356e-10 -5.460428e-10 9.053211e-08) (-6.979086e-10 -7.927829e-10 4.851041e-07)) ((5.145747e-14 -1.477171e-12 -9.200626e-15) (-4.356412e-11 4.097131e-11 -1.213199e-12))
974.663706    	((-1.604504e-10 -5.407248e-10 9.067350e-08) (-6.984056e-10 -7.930155e-10 4.855271e-07)) ((5.189900e-14 -1.475487e-12 -8.796904e-15) (-4.355536e-11 4.104514e-11 -1.227026e-12))
1050.96128    	((-1.474514e-10 -5.366259e-10 9.075283e-08) (-6.979994e-10 -7.928499e-10 4.858021e-07)) ((5.242357e-14 -1.473879e-12 -8.599594e-15) (-4.351619e-11 4.104250e-11 -1.240520e-12))
1127.22132    	((-1.329108e-10 -5.344727e-10 9.076724e-08) (-6.971789e-10 -7.925797e-10 4.859595e-07)) ((5.317593e-14 -1.472579e-12 -8.527837e-15) (-4.346971e-11 4.101545e-11 -1.245736e-12))
1203.464047   	((-1.178464e-10 -5.323640e-10 9.074307e-08) (-6.963513e-10 -7.921950e-10 4.860345e-07)) ((5.361755e-14 -1.471807e-12 -8.541538e-15) (-4.342541e-11 4.098545e-11 -1.244919e-12))
1279.701973   	((-1.031848e-10 -5.307152e-10 9.069607e-08) (-6.955249e-10 -7.919208e-10 4.860583e-07)) ((5.380529e-14 -1.471481e-12 -8.613047e-15) (-4.339533e-11 4.096021e-11 -1.241308e-12))
1355.94173    	((-8.976243e-11 -5.294115e-10 9.064094e-08) (-6.946864e-10 -7.918244e-10 4.860539e-07)) ((5.400636e-14 -1.471361e-12 -8.696916e-15) (-4.338243e-11 4.093980e-11 -1.236741e-12))
1432.186013   	((-7.822670e-11 -5.280059e-10 9.058486e-08) (-6.938563e-10 -7.917823e-10 4.860376e-07)) ((5.427480e-14 -1.471381e-12 -8.765734e-15) (-4.338059e-11 4.092148e-11 -1.234109e-12))
1508.43521    	((-6.909703e-11 -5.265195e-10 9.053418e-08) (-6.932282e-10 -7.917956e-10 4.860188e-07)) ((5.453789e-14 -1.471684e-12 -8.816149e-15) (-4.338511e-11 4.090889e-11 -1.232806e-12))
1584.688569   	((-6.209920e-11 -5.247733e-10 9.048781e-08) (-6.927736e-10 -7.918518e-10 4.860024e-07)) ((5.482158e-14 -1.472119e-12 -8.851815e-15) (-4.339611e-11 4.090035e-11 -1.231832e-12))
1660.944935   	((-5.678031e-11 -5.229516e-10 9.044802e-08) (-6.924201e-10 -7.919250e-10 4.859904e-07)) ((5.513283e-14 -1.472491e-12 -8.881501e-15) (-4.340949e-11 4.089411e-11 -1.230991e-12))
1737.203155   	((-5.330028e-11 -5.212004e-10 9.041342e-08) (-6.921623e-10 -7.919965e-10 4.859827e-07)) ((5.542840e-14 -1.472837e-12 -8.881395e-15) (-4.342305e-11 4.089133e-11 -1.228931e-12))
1813.462287   	((-5.127267e-11 -5.197023e-10 9.038346e-08) (-6.919925e-10 -7.920722e-10 4.859787e-07)) ((5.565072e-14 -1.473169e-12 -8.839105e-15) (-4.343651e-11 4.089182e-11 -1.225234e-12))
1889.72166    	((-4.997080e-11 -5.184179e-10 9.035689e-08) (-6.918835e-10 -7.921197e-10 4.859773e-07)) ((5.579042e-14 -1.473471e-12 -8.762115e-15) (-4.344770e-11 4.089397e-11 -1.219888e-12))
1965.980852   	((-4.915631e-11 -5.171156e-10 9.033316e-08) (-6.917690e-10 -7.921676e-10 4.859775e-07)) ((5.582742e-14 -1.473795e-12 -8.708435e-15) (-4.345667e-11 4.089489e-11 -1.213639e-12))
2042.239645   	((-4.886902e-11 -5.157138e-10 9.031179e-08) (-6.916996e-10 -7.921671e-10 4.859785e-07)) ((5.580972e-14 -1.474120e-12 -8.669917e-15) (-4.346122e-11 4.089700e-11 -1.206896e-12))
2118.49797    	((-4.900394e-11 -5.140138e-10 9.029225e-08) (-6.916540e-10 -7.921159e-10 4.859799e-07)) ((5.584173e-14 -1.474386e-12 -8.616066e-15) (-4.346207e-11 4.089888e-11 -1.200067e-12))
2194.755846   	((-4.952286e-11 -5.119792e-10 9.027460e-08) (-6.916364e-10 -7.920050e-10 4.859812e-07)) ((5.589975e-14 -1.474580e-12 -8.561233e-15) (-4.345913e-11 4.090126e-11 -1.193550e-12))
2271.013345   	((-5.032620e-11 -5.094865e-10 9.025770e-08) (-6.916391e-10 -7.918688e-10 4.859821e-07)) ((5.602992e-14 -1.474738e-12 -8.514166e-15) (-4.345539e-11 4.090356e-11 -1.188455e-12))
2347.270554   	((-5.163340e-11 -5.064203e-10 9.024214e-08) (-6.916753e-10 -7.916917e-10 4.859828e-07)) ((5.621957e-14 -1.474856e-12 -8.478927e-15) (-4.345142e-11 4.090711e-11 -1.184691e-12))
2423.527557   	((-5.369334e-11 -5.025985e-10 9.022730e-08) (-6.917538e-10 -7.914706e-10 4.859831e-07)) ((5.643103e-14 -1.474898e-12 -8.448790e-15) (-4.344647e-11 4.091257e-11 -1.181654e-12))
2499.784426   	((-5.638678e-11 -4.981960e-10 9.021252e-08) (-6.919332e-10 -7.911691e-10 4.859833e-07)) ((5.666234e-14 -1.474884e-12 -8.416105e-15) (-4.343977e-11 4.092084e-11 -1.178526e-12))
2576.041213   	((-5.963383e-11 -4.933324e-10 9.019810e-08) (-6.921441e-10 -7.908659e-10 4.859832e-07)) ((5.689998e-14 -1.474834e-12 -8.379354e-15) (-4.343503e-11 4.092834e-11 -1.175810e-12))
2652.297953   	((-6.310196e-11 -4.883473e-10 9.018400e-08) (-6.923471e-10 -7.906145e-10 4.859830e-07)) ((5.717631e-14 -1.474734e-12 -8.351116e-15) (-4.343393e-11 4.093428e-11 -1.173279e-12))
2728.55467    	((-6.615236e-11 -4.838932e-10 9.017116e-08) (-6.925792e-10 -7.903843e-10 4.859827e-07)) ((5.744653e-14 -1.474611e-12 -8.296164e-15) (-4.343116e-11 4.094369e-11 -1.170363e-12))
2804.811375   	((-6.900711e-11 -4.796123e-10 9.015912e-08) (-6.928114e-10 -7.901664e-10 4.859824e-07)) ((5.770814e-14 -1.474465e-12 -8.227555e-15) (-4.342881e-11 4.095297e-11 -1.167817e-12))
2881.068074   	((-7.169769e-11 -4.754204e-10 9.014778e-08) (-6.930264e-10 -7.899645e-10 4.859822e-07)) ((5.792961e-14 -1.474377e-12 -8.144347e-15) (-4.342707e-11 4.096135e-11 -1.165801e-12))
2957.324767   	((-7.431034e-11 -4.711867e-10 9.013717e-08) (-6.932311e-10 -7.897868e-10 4.859819e-07)) ((5.811923e-14 -1.474329e-12 -8.058845e-15) (-4.342690e-11 4.096830e-11 -1.163848e-12))
3033.581453   	((-7.674005e-11 -4.672070e-10 9.012762e-08) (-6.934111e-10 -7.896133e-10 4.859816e-07)) ((5.829787e-14 -1.474315e-12 -7.982623e-15) (-4.342756e-11 4.097288e-11 -1.162289e-12))
3109.83813    	((-7.891892e-11 -4.634496e-10 9.011913e-08) (-6.935600e-10 -7.894642e-10 4.859813e-07)) ((5.846621e-14 -1.474313e-12 -7.908855e-15) (-4.342939e-11 4.097540e-11 -1.161158e-12))
3186.094797   	((-8.088927e-11 -4.599350e-10 9.011118e-08) (-6.936721e-10 -7.893398e-10 4.859810e-07)) ((5.861340e-14 -1.474309e-12 -7.833812e-15) (-4.343197e-11 4.097609e-11 -1.160329e-12))
3262.351452   	((-8.265267e-11 -4.568108e-10 9.010458e-08) (-6.937674e-10 -7.892236e-10 4.859807e-07)) ((5.876702e-14 -1.474274e-12 -7.761114e-15) (-4.343460e-11 4.097582e-11 -1.159839e-12))
3338.608095   	((-8.422853e-11 -4.535629e-10 9.009764e-08) (-6.938483e-10 -7.891161e-10 4.859805e-07)) ((5.890199e-14 -1.474250e-12 -7.696048e-15) (-4.343712e-11 4.097487e-11 -1.159361e-12))
3414.864725   	((-8.559832e-11 -4.503889e-10 9.009147e-08) (-6.938912e-10 -7.890170e-10 4.859802e-07)) ((5.902352e-14 -1.474236e-12 -7.629242e-15) (-4.343958e-11 4.097256e-11 -1.158893e-12))
3491.121345   	((-8.660214e-11 -4.477772e-10 9.008553e-08) (-6.939189e-10 -7.889273e-10 4.859800e-07)) ((5.916156e-14 -1.474243e-12 -7.568326e-15) (-4.344210e-11 4.096979e-11 -1.158458e-12))
3567.377953   	((-8.738048e-11 -4.449192e-10 9.008014e-08) (-6.939145e-10 -7.888495e-10 4.859799e-07)) ((5.928443e-14 -1.474247e-12 -7.513284e-15) (-4.344463e-11 4.096625e-11 -1.158206e-12))
3643.634551   	((-8.795826e-11 -4.424859e-10 9.007507e-08) (-6.939082e-10 -7.887714e-10 4.859797e-07)) ((5.941853e-14 -1.474255e-12 -7.462682e-15) (-4.344615e-11 4.096353e-11 -1.157917e-12))
3719.89114    	((-8.843006e-11 -4.399573e-10 9.007024e-08) (-6.939020e-10 -7.886995e-10 4.859796e-07)) ((5.955382e-14 -1.474298e-12 -7.415191e-15) (-4.344751e-11 4.096143e-11 -1.157734e-12))
3796.147722   	((-8.877730e-11 -4.376656e-10 9.006601e-08) (-6.938715e-10 -7.886442e-10 4.859795e-07)) ((5.967648e-14 -1.474371e-12 -7.375019e-15) (-4.344944e-11 4.095876e-11 -1.157831e-12))
3872.404297   	((-8.906916e-11 -4.354420e-10 9.006199e-08) (-6.938537e-10 -7.885835e-10 4.859794e-07)) ((5.978063e-14 -1.474410e-12 -7.349106e-15) (-4.345075e-11 4.095659e-11 -1.157746e-12))
3948.660866   	((-8.931328e-11 -4.334758e-10 9.005878e-08) (-6.938514e-10 -7.885154e-10 4.859793e-07)) ((5.984915e-14 -1.474455e-12 -7.330294e-15) (-4.345134e-11 4.095515e-11 -1.157379e-12))
4024.91743    	((-8.957000e-11 -4.319213e-10 9.005594e-08) (-6.938540e-10 -7.884526e-10 4.859792e-07)) ((5.991723e-14 -1.474488e-12 -7.308601e-15) (-4.345174e-11 4.095405e-11 -1.156871e-12))
4101.17399    	((-8.981036e-11 -4.304606e-10 9.005321e-08) (-6.938623e-10 -7.883959e-10 4.859791e-07)) ((5.998173e-14 -1.474518e-12 -7.292464e-15) (-4.345190e-11 4.095321e-11 -1.156382e-12))
4177.430547   	((-9.001826e-11 -4.290329e-10 9.005061e-08) (-6.938751e-10 -7.883437e-10 4.859790e-07)) ((6.004447e-14 -1.474547e-12 -7.278698e-15) (-4.345191e-11 4.095275e-11 -1.155828e-12))
4253.6871     	((-9.020034e-11 -4.276511e-10 9.004817e-08) (-6.938893e-10 -7.882936e-10 4.859790e-07)) ((6.010537e-14 -1.474575e-12 -7.266166e-15) (-4.345181e-11 4.095251e-11 -1.155252e-12))
4329.94365    	((-9.035054e-11 -4.264758e-10 9.004608e-08) (-6.939002e-10 -7.882457e-10 4.859789e-07)) ((6.015893e-14 -1.474609e-12 -7.252884e-15) (-4.345164e-11 4.095220e-11 -1.154693e-12))
4406.200198   	((-9.045588e-11 -4.255845e-10 9.004437e-08) (-6.939047e-10 -7.882044e-10 4.859789e-07)) ((6.020704e-14 -1.474620e-12 -7.242840e-15) (-4.345148e-11 4.095173e-11 -1.154285e-12))
4482.456744   	((-9.052729e-11 -4.246145e-10 9.004264e-08) (-6.939112e-10 -7.881634e-10 4.859788e-07)) ((6.025494e-14 -1.474633e-12 -7.235030e-15) (-4.345086e-11 4.095140e-11 -1.153906e-12))
4558.713288   	((-9.057686e-11 -4.236648e-10 9.004099e-08) (-6.939161e-10 -7.881238e-10 4.859788e-07)) ((6.030227e-14 -1.474644e-12 -7.227878e-15) (-4.345021e-11 4.095119e-11 -1.153557e-12))
4634.96983    	((-9.061417e-11 -4.226676e-10 9.003935e-08) (-6.939205e-10 -7.880881e-10 4.859788e-07)) ((6.034347e-14 -1.474654e-12 -7.221324e-15) (-4.345004e-11 4.095111e-11 -1.153215e-12))
4711.226371   	((-9.063481e-11 -4.217134e-10 9.003781e-08) (-6.939223e-10 -7.880511e-10 4.859787e-07)) ((6.038847e-14 -1.474662e-12 -7.214870e-15) (-4.344968e-11 4.095096e-11 -1.152892e-12))
4787.482911   	((-9.072826e-11 -4.212260e-10 9.003825e-08) (-6.939202e-10 -7.880055e-10 4.859787e-07)) ((6.042572e-14 -1.474663e-12 -7.211890e-15) (-4.344889e-11 4.095082e-11 -1.152548e-12))
4863.739449   	((-9.069939e-11 -4.208135e-10 9.003698e-08) (-6.939123e-10 -7.879763e-10 4.859787e-07)) ((6.045767e-14 -1.474651e-12 -7.207751e-15) (-4.344848e-11 4.095031e-11 -1.152365e-12))
4939.995988   	((-9.065547e-11 -4.197128e-10 9.003581e-08) (-6.939078e-10 -7.879431e-10 4.859786e-07)) ((6.049017e-14 -1.474664e-12 -7.203620e-15) (-4.344789e-11 4.094984e-11 -1.152071e-12))
5016.252526   	((-9.072190e-11 -4.193025e-10 9.003524e-08) (-6.939056e-10 -7.879134e-10 4.859786e-07)) ((6.052971e-14 -1.474687e-12 -7.200010e-15) (-4.344736e-11 4.094961e-11 -1.151782e-12))
5092.509062   	((-9.065576e-11 -4.188066e-10 9.003392e-08) (-6.938950e-10 -7.878889e-10 4.859786e-07)) ((6.055812e-14 -1.474669e-12 -7.196752e-15) (-4.344698e-11 4.094911e-11 -1.151681e-12))
5168.765599   	((-9.058599e-11 -4.177882e-10 9.003262e-08) (-6.938928e-10 -7.878597e-10 4.859786e-07)) ((6.058739e-14 -1.474683e-12 -7.192254e-15) (-4.344655e-11 4.094887e-11 -1.151506e-12))
5245.022135   	((-9.060993e-11 -4.176083e-10 9.003278e-08) (-6.938956e-10 -7.878341e-10 4.859786e-07)) ((6.062390e-14 -1.474701e-12 -7.188261e-15) (-4.344617e-11 4.094885e-11 -1.151344e-12))
5321.27867    	((-9.053628e-11 -4.173000e-10 9.003159e-08) (-6.938853e-10 -7.878172e-10 4.859785e-07)) ((6.064303e-14 -1.474702e-12 -7.183341e-15) (-4.344602e-11 4.094848e-11 -1.151334e-12))
5397.535204   	((-9.049914e-11 -4.163963e-10 9.003058e-08) (-6.938829e-10 -7.877957e-10 4.859785e-07)) ((6.066674e-14 -1.474706e-12 -7.181666e-15) (-4.344573e-11 4.094847e-11 -1.151256e-12))
5473.791739   	((-9.053538e-11 -4.162376e-10 9.003060e-08) (-6.938949e-10 -7.877747e-10 4.859785e-07)) ((6.069954e-14 -1.474728e-12 -7.178035e-15) (-4.344547e-11 4.094885e-11 -1.151156e-12))
5550.048272   	((-9.046217e-11 -4.159522e-10 9.002951e-08) (-6.938902e-10 -7.877613e-10 4.859785e-07)) ((6.071634e-14 -1.474731e-12 -7.173352e-15) (-4.344544e-11 4.094878e-11 -1.151177e-12))
5626.304805   	((-9.042003e-11 -4.151042e-10 9.002858e-08) (-6.938912e-10 -7.877437e-10 4.859785e-07)) ((6.073762e-14 -1.474737e-12 -7.171633e-15) (-4.344528e-11 4.094898e-11 -1.151124e-12))
5702.561338   	((-9.045434e-11 -4.149711e-10 9.002866e-08) (-6.939041e-10 -7.877250e-10 4.859785e-07)) ((6.076779e-14 -1.474758e-12 -7.168231e-15) (-4.344510e-11 4.094945e-11 -1.151054e-12))
