# Forces      
# CofR        : (0.000000e+00 0.000000e+00 0.000000e+00)
# Time        forces(pressure viscous)	moments(pressure viscous)
0             	((0.000000e+00 0.000000e+00 0.000000e+00) (0.000000e+00 0.000000e+00 0.000000e+00)) ((0.000000e+00 0.000000e+00 0.000000e+00) (0.000000e+00 0.000000e+00 0.000000e+00))
0.012         	((9.813886e-12 -3.626626e-07 -5.874218e-08) (9.697000e-14 -8.342321e-07 -3.565372e-13)) ((-5.297868e-11 -1.918696e-13 4.852761e-13) (-5.551444e-08 -5.212710e-15 -8.965899e-14))
0.0264        	((2.125058e-10 -4.874518e-07 -1.244285e-07) (4.769659e-13 -7.641612e-07 -1.072951e-12)) ((2.405393e-11 -4.170236e-13 2.144498e-13) (-5.090668e-08 -1.315657e-14 -9.241377e-14))
0.04368       	((-1.625451e-10 -3.296081e-07 -6.751239e-08) (6.061242e-13 -6.918486e-07 -2.553640e-12)) ((1.786131e-11 -2.200966e-13 2.415454e-13) (-4.616540e-08 -4.124721e-15 -1.729527e-13))
0.064416      	((1.864268e-10 -3.726456e-07 -8.734065e-08) (8.223291e-13 -6.188923e-07 -4.746147e-12)) ((3.527522e-11 -2.915479e-13 1.520041e-13) (-4.139813e-08 1.034391e-14 -6.702588e-14))
0.0892992     	((-9.067222e-11 -2.750852e-07 -5.826176e-08) (8.260010e-13 -5.473758e-07 -8.215145e-12)) ((2.517431e-11 -1.925941e-13 1.009298e-13) (-3.674075e-08 2.409826e-14 2.030560e-13))
0.119159      	((6.851010e-11 -2.820983e-07 -6.323773e-08) (4.564301e-13 -4.795859e-07 -1.283889e-11)) ((3.082582e-11 -2.095147e-13 5.291709e-14) (-3.234603e-08 2.444851e-14 3.114681e-13))
0.154991      	((-4.493471e-11 -2.124590e-07 -4.516017e-08) (1.133428e-13 -4.176314e-07 -1.809415e-11)) ((2.154078e-11 -1.523443e-13 2.366022e-14) (-2.830762e-08 2.520584e-14 3.520931e-13))
0.197989      	((1.604532e-11 -2.097073e-07 -4.549769e-08) (-1.594254e-14 -3.628045e-07 -2.401161e-11)) ((2.429627e-11 -1.534514e-13 3.550038e-14) (-2.473074e-08 2.291377e-14 3.731183e-13))
0.249587      	((-1.340997e-11 -1.629134e-07 -3.529754e-08) (-1.375580e-13 -3.160804e-07 -3.032466e-11)) ((1.740716e-11 -1.177127e-13 2.847355e-14) (-2.165940e-08 6.939769e-15 3.483896e-13))
0.311504      	((-5.150557e-12 -1.581430e-07 -3.421532e-08) (-2.242577e-13 -2.772325e-07 -3.605831e-11)) ((1.917351e-11 -1.167855e-13 5.133156e-14) (-1.909492e-08 -3.456935e-15 2.756158e-13))
0.385805      	((1.473804e-12 -1.274644e-07 -2.843109e-08) (-3.070552e-13 -2.451321e-07 -4.197803e-11)) ((1.428981e-11 -9.506739e-14 3.211515e-14) (-1.697356e-08 -1.353102e-14 1.553869e-13))
0.474966      	((-2.921177e-12 -1.235481e-07 -2.685861e-08) (-2.499929e-13 -2.185707e-07 -4.570381e-11)) ((1.552410e-11 -9.347544e-14 4.457567e-14) (-1.522140e-08 -9.554359e-15 5.220539e-14))
0.581959      	((7.113080e-12 -1.029256e-07 -2.314642e-08) (1.360619e-14 -1.962072e-07 -4.948551e-11)) ((1.197063e-11 -7.639279e-14 3.014344e-14) (-1.374502e-08 -8.147560e-15 5.493486e-14))
0.710351      	((-4.010146e-14 -9.972185e-08 -2.147770e-08) (1.648482e-13 -1.769942e-07 -5.029640e-11)) ((1.290027e-11 -7.555696e-14 4.624626e-14) (-1.248114e-08 6.203508e-15 4.732667e-14))
0.864421      	((1.205194e-11 -8.491274e-08 -1.901179e-08) (2.799970e-13 -1.601016e-07 -5.306618e-11)) ((1.038408e-11 -6.385043e-14 3.223767e-14) (-1.137075e-08 1.232629e-14 1.027921e-13))
1.049306      	((1.954995e-12 -8.168160e-08 -1.759302e-08) (2.405762e-13 -1.450652e-07 -5.352530e-11)) ((1.111286e-11 -6.212334e-14 2.696111e-14) (-1.038682e-08 2.092078e-14 1.793359e-13))
1.271167      	((9.566079e-12 -7.022135e-08 -1.575861e-08) (3.295545e-13 -1.315001e-07 -5.731292e-11)) ((9.377898e-12 -5.445991e-14 1.017778e-16) (-9.500121e-09 4.360874e-14 2.100055e-13))
1.5374        	((8.892216e-12 -6.675153e-08 -1.450130e-08) (5.178346e-13 -1.192538e-07 -5.403918e-11)) ((9.777365e-12 -5.227302e-14 -3.354740e-15) (-8.700636e-09 8.286536e-14 1.794765e-13))
1.85688       	((7.752057e-12 -5.783218e-08 -1.312496e-08) (7.515049e-13 -1.081872e-07 -5.796227e-11)) ((8.508347e-12 -4.747964e-14 -1.739615e-14) (-7.979750e-09 1.362321e-13 1.909730e-13))
2.240256      	((7.564576e-12 -5.421762e-08 -1.221064e-08) (1.527665e-12 -9.824533e-08 -5.788188e-11)) ((8.627850e-12 -4.523594e-14 -1.394566e-14) (-7.331507e-09 2.002633e-13 2.838441e-13))
2.700307      	((1.892675e-12 -4.754872e-08 -1.126929e-08) (1.982138e-12 -8.945326e-08 -6.078150e-11)) ((7.732616e-12 -4.205312e-14 -2.179864e-14) (-6.758737e-09 2.752090e-13 3.698286e-13))
3.252369      	((1.289196e-11 -4.424881e-08 -1.062703e-08) (1.832483e-12 -8.168969e-08 -6.772650e-11)) ((7.747575e-12 -4.062274e-14 -1.653495e-14) (-6.252524e-09 3.533869e-13 3.782340e-13))
3.914842      	((-2.993155e-13 -3.947152e-08 -9.913002e-09) (1.642226e-12 -7.486093e-08 -6.917605e-11)) ((7.231505e-12 -3.642628e-14 -1.711097e-14) (-5.808518e-09 4.326668e-13 2.973885e-13))
4.709811      	((3.609454e-12 -3.651935e-08 -9.387054e-09) (7.435528e-13 -6.884992e-08 -7.181598e-11)) ((7.163533e-12 -3.587327e-14 -1.523767e-14) (-5.418475e-09 4.755813e-13 1.830740e-13))
5.663773      	((1.521166e-12 -3.302984e-08 -8.739809e-09) (2.102651e-13 -6.351782e-08 -7.785611e-11)) ((6.825817e-12 -3.139623e-14 -1.631661e-14) (-5.073505e-09 5.068356e-13 7.565495e-14))
6.808528      	((9.078513e-12 -3.045847e-08 -8.168181e-09) (1.138114e-12 -5.873724e-08 -8.602497e-11)) ((6.674212e-12 -3.265299e-14 -1.628816e-14) (-4.765167e-09 5.218623e-13 -1.408643e-15))
8.182233      	((1.207341e-11 -2.775437e-08 -7.539558e-09) (1.900040e-12 -5.439951e-08 -9.365245e-11)) ((6.456858e-12 -2.938393e-14 -1.868950e-14) (-4.486851e-09 4.949733e-13 -2.977848e-14))
9.83068       	((1.100524e-11 -2.546561e-08 -6.975738e-09) (2.639117e-12 -5.043081e-08 -9.920141e-11)) ((6.293443e-12 -3.001486e-14 -1.877203e-14) (-4.233596e-09 4.330049e-13 -2.353750e-14))
11.808816     	((8.824234e-12 -2.328568e-08 -6.460484e-09) (3.420417e-12 -4.678879e-08 -1.049033e-10)) ((6.131828e-12 -2.682073e-14 -1.951755e-14) (-4.002778e-09 3.637128e-13 -3.183480e-14))
14.182579     	((9.673569e-12 -2.138780e-08 -6.071495e-09) (3.348114e-12 -4.344358e-08 -1.139506e-10)) ((5.975291e-12 -2.761218e-14 -1.944697e-14) (-3.791980e-09 3.092408e-13 3.490268e-15))
17.031095     	((8.034268e-12 -1.960441e-08 -5.754157e-09) (3.280878e-12 -4.036819e-08 -1.199393e-10)) ((5.853539e-12 -2.484136e-14 -1.986903e-14) (-3.599869e-09 3.119744e-13 3.526999e-14))
20.449314     	((8.659569e-12 -1.801487e-08 -5.553576e-09) (3.045393e-12 -3.754728e-08 -1.232064e-10)) ((5.732722e-12 -2.496356e-14 -2.045855e-14) (-3.424919e-09 2.777847e-13 2.842560e-14))
24.551176     	((6.845146e-12 -1.651812e-08 -5.390490e-09) (2.656324e-12 -3.496505e-08 -1.227836e-10)) ((5.644053e-12 -2.417995e-14 -2.087105e-14) (-3.265941e-09 2.268123e-13 -7.666031e-15))
29.473411     	((4.708137e-12 -1.517081e-08 -5.219286e-09) (2.418501e-12 -3.260660e-08 -1.209003e-10)) ((5.560236e-12 -2.402343e-14 -2.138623e-14) (-3.121645e-09 2.019371e-13 -1.461566e-14))
35.380094     	((2.988164e-12 -1.392406e-08 -5.058023e-09) (2.897204e-12 -3.045394e-08 -1.170772e-10)) ((5.493767e-12 -2.320120e-14 -2.180873e-14) (-2.990568e-09 1.939558e-13 -3.876353e-14))
42.468112     	((3.371391e-12 -1.280178e-08 -4.902769e-09) (3.204377e-12 -2.848631e-08 -1.142230e-10)) ((5.431193e-12 -2.265737e-14 -2.193384e-14) (-2.871296e-09 1.954609e-13 -7.818339e-14))
50.973735     	((3.485252e-12 -1.176014e-08 -4.754546e-09) (3.450338e-12 -2.668721e-08 -1.145724e-10)) ((5.379551e-12 -2.226160e-14 -2.191696e-14) (-2.762762e-09 1.668262e-13 -1.091513e-13))
61.180482     	((4.054911e-12 -1.082312e-08 -4.624293e-09) (3.566232e-12 -2.504445e-08 -1.157800e-10)) ((5.331830e-12 -2.213373e-14 -2.201837e-14) (-2.664247e-09 1.375129e-13 -1.324839e-13))
73.428578     	((2.788276e-12 -9.971367e-09 -4.503605e-09) (3.189379e-12 -2.354744e-08 -1.165676e-10)) ((5.292157e-12 -2.193679e-14 -2.184055e-14) (-2.575106e-09 1.370986e-13 -1.431443e-13))
88.126294     	((1.995044e-12 -9.205290e-09 -4.389361e-09) (2.771658e-12 -2.218589e-08 -1.169096e-10)) ((5.257682e-12 -2.155197e-14 -2.172148e-14) (-2.494683e-09 1.352940e-13 -1.623368e-13))
105.763553    	((8.164857e-13 -8.523981e-09 -4.286078e-09) (2.377666e-12 -2.095034e-08 -1.157187e-10)) ((5.229287e-12 -2.107570e-14 -2.168823e-14) (-2.422353e-09 1.336148e-13 -1.800030e-13))
126.928263    	((1.693097e-13 -7.911232e-09 -4.208915e-09) (2.180452e-12 -1.983232e-08 -1.144840e-10)) ((5.205265e-12 -2.092150e-14 -2.157264e-14) (-2.357501e-09 1.448145e-13 -2.010890e-13))
152.325916    	((-4.251433e-13 -7.366239e-09 -4.147395e-09) (1.979329e-12 -1.882191e-08 -1.141410e-10)) ((5.186076e-12 -2.081190e-14 -2.150925e-14) (-2.299433e-09 1.535921e-13 -2.187842e-13))
182.803099    	((4.140912e-13 -6.886086e-09 -4.090773e-09) (1.971696e-12 -1.791080e-08 -1.151955e-10)) ((5.169751e-12 -2.071361e-14 -2.137157e-14) (-2.247528e-09 1.514829e-13 -2.299895e-13))
219.375719    	((5.667512e-13 -6.463054e-09 -4.045520e-09) (1.981062e-12 -1.708976e-08 -1.190943e-10)) ((5.156572e-12 -2.078333e-14 -2.109080e-14) (-2.201190e-09 1.443747e-13 -2.471770e-13))
263.262863    	((1.969152e-13 -6.090118e-09 -4.014400e-09) (1.796013e-12 -1.635107e-08 -1.258249e-10)) ((5.146101e-12 -2.067938e-14 -2.085224e-14) (-2.159903e-09 1.488512e-13 -2.583355e-13))
315.927436    	((3.857253e-13 -5.764341e-09 -3.999030e-09) (1.508287e-12 -1.568798e-08 -1.348874e-10)) ((5.137674e-12 -2.077467e-14 -2.080731e-14) (-2.123193e-09 1.506449e-13 -2.610389e-13))
379.124923    	((2.596206e-13 -5.482956e-09 -3.978909e-09) (1.469942e-12 -1.509475e-08 -1.462262e-10)) ((5.131072e-12 -2.090075e-14 -2.087777e-14) (-2.090658e-09 1.366368e-13 -2.553043e-13))
454.961908    	((-2.785712e-14 -5.243926e-09 -3.971423e-09) (1.462772e-12 -1.456713e-08 -1.598372e-10)) ((5.125654e-12 -2.093360e-14 -2.093477e-14) (-2.061985e-09 1.210846e-13 -2.478403e-13))
545.966289    	((-3.208999e-13 -5.040378e-09 -3.985238e-09) (1.322852e-12 -1.410152e-08 -1.752839e-10)) ((5.121284e-12 -2.087262e-14 -2.101532e-14) (-2.036924e-09 1.081302e-13 -2.443068e-13))
655.171547    	((-2.204742e-13 -4.871987e-09 -3.998874e-09) (1.091710e-12 -1.369461e-08 -1.918299e-10)) ((5.117720e-12 -2.076004e-14 -2.107982e-14) (-2.015234e-09 1.039083e-13 -2.419469e-13))
786.217856    	((-1.103914e-13 -4.734532e-09 -4.016464e-09) (9.102205e-13 -1.334355e-08 -2.088563e-10)) ((5.114897e-12 -2.074492e-14 -2.113231e-14) (-1.996674e-09 9.955795e-14 -2.375905e-13))
943.473427    	((-1.013067e-13 -4.623417e-09 -4.035618e-09) (8.208854e-13 -1.304504e-08 -2.264004e-10)) ((5.112748e-12 -2.071436e-14 -2.118281e-14) (-1.980992e-09 9.401713e-14 -2.328398e-13))
1132.180113   	((-7.656238e-14 -4.534569e-09 -4.056788e-09) (7.427819e-13 -1.279528e-08 -2.440255e-10)) ((5.111117e-12 -2.070816e-14 -2.125273e-14) (-1.967922e-09 9.021088e-14 -2.262062e-13))
1358.628135   	((-1.195105e-13 -4.464554e-09 -4.077865e-09) (6.964734e-13 -1.258981e-08 -2.613557e-10)) ((5.109951e-12 -2.070664e-14 -2.131862e-14) (-1.957186e-09 8.739131e-14 -2.190390e-13))
1630.365763   	((-1.269909e-13 -4.410352e-09 -4.097602e-09) (6.715104e-13 -1.242378e-08 -2.779410e-10)) ((5.109063e-12 -2.067534e-14 -2.136947e-14) (-1.948504e-09 8.494593e-14 -2.109987e-13))
1956.450915   	((-1.257832e-13 -4.368658e-09 -4.116550e-09) (6.503812e-13 -1.229208e-08 -2.932940e-10)) ((5.108353e-12 -2.066280e-14 -2.140550e-14) (-1.941588e-09 8.392615e-14 -2.026877e-13))
2347.753098   	((-1.995455e-13 -4.337072e-09 -4.132633e-09) (6.231414e-13 -1.218936e-08 -3.070578e-10)) ((5.107768e-12 -2.065611e-14 -2.143113e-14) (-1.936156e-09 8.323880e-14 -1.942922e-13))
2808.080312   	((-3.006393e-13 -4.313125e-09 -4.145971e-09) (5.978873e-13 -1.211062e-08 -3.189897e-10)) ((5.107329e-12 -2.064365e-14 -2.144894e-14) (-1.931949e-09 8.300472e-14 -1.863834e-13))
3337.430069   	((-3.357831e-13 -4.295153e-09 -4.156925e-09) (5.769538e-13 -1.205120e-08 -3.290264e-10)) ((5.107018e-12 -2.063393e-14 -2.145670e-14) (-1.928733e-09 8.276213e-14 -1.794502e-13))
3935.800561   	((-3.756745e-13 -4.281758e-09 -4.165981e-09) (5.498958e-13 -1.200696e-08 -3.372126e-10)) ((5.106785e-12 -2.063048e-14 -2.146657e-14) (-1.926299e-09 8.277932e-14 -1.740189e-13))
4603.190501   	((-4.080288e-13 -4.271731e-09 -4.173097e-09) (5.215660e-13 -1.197439e-08 -3.437224e-10)) ((5.106604e-12 -2.063187e-14 -2.147312e-14) (-1.924472e-09 8.340299e-14 -1.704056e-13))
5293.376222   	((-4.566500e-13 -4.264242e-09 -4.178473e-09) (4.944265e-13 -1.195067e-08 -3.487558e-10)) ((5.106548e-12 -2.063967e-14 -2.147951e-14) (-1.923112e-09 8.404158e-14 -1.679035e-13))
5983.55653    	((-4.929626e-13 -4.258629e-09 -4.182681e-09) (4.684452e-13 -1.193349e-08 -3.525596e-10)) ((5.106557e-12 -2.065031e-14 -2.148463e-14) (-1.922106e-09 8.459668e-14 -1.659868e-13))
6673.733913   	((-5.267631e-13 -4.254390e-09 -4.186002e-09) (4.468868e-13 -1.192109e-08 -3.553901e-10)) ((5.106574e-12 -2.065861e-14 -2.148740e-14) (-1.921361e-09 8.508952e-14 -1.645244e-13))
7363.909912   	((-5.612584e-13 -4.251165e-09 -4.188526e-09) (4.278916e-13 -1.191215e-08 -3.574723e-10)) ((5.106588e-12 -2.066608e-14 -2.148923e-14) (-1.920809e-09 8.561425e-14 -1.635048e-13))
8054.085393   	((-5.923798e-13 -4.248690e-09 -4.190569e-09) (4.116207e-13 -1.190569e-08 -3.589922e-10)) ((5.106598e-12 -2.067219e-14 -2.149003e-14) (-1.920398e-09 8.606125e-14 -1.627609e-13))
8744.260863   	((-6.162603e-13 -4.246797e-09 -4.192126e-09) (3.984555e-13 -1.190100e-08 -3.600951e-10)) ((5.106607e-12 -2.067641e-14 -2.149035e-14) (-1.920092e-09 8.641531e-14 -1.622650e-13))
9434.436596   	((-6.348449e-13 -4.245340e-09 -4.193362e-09) (3.879844e-13 -1.189759e-08 -3.608931e-10)) ((5.106613e-12 -2.067974e-14 -2.149060e-14) (-1.919862e-09 8.668775e-14 -1.619885e-13))
10124.612727  	((-6.506895e-13 -4.244201e-09 -4.194346e-09) (3.796155e-13 -1.189510e-08 -3.614706e-10)) ((5.106618e-12 -2.068224e-14 -2.149097e-14) (-1.919688e-09 8.690740e-14 -1.618656e-13))
10814.789203  	((-6.600721e-13 -4.243322e-09 -4.195107e-09) (3.730483e-13 -1.189327e-08 -3.618883e-10)) ((5.106622e-12 -2.068410e-14 -2.149127e-14) (-1.919557e-09 8.707764e-14 -1.618560e-13))
11504.966014  	((-6.661959e-13 -4.242638e-09 -4.195736e-09) (3.678252e-13 -1.189192e-08 -3.621919e-10)) ((5.106625e-12 -2.068564e-14 -2.149138e-14) (-1.919457e-09 8.721752e-14 -1.619174e-13))
12195.143149  	((-6.703851e-13 -4.242105e-09 -4.196246e-09) (3.638154e-13 -1.189092e-08 -3.624139e-10)) ((5.106628e-12 -2.068698e-14 -2.149137e-14) (-1.919381e-09 8.732036e-14 -1.620316e-13))
12885.320581  	((-6.758358e-13 -4.241684e-09 -4.196666e-09) (3.607926e-13 -1.189017e-08 -3.625776e-10)) ((5.106629e-12 -2.068825e-14 -2.149134e-14) (-1.919322e-09 8.739854e-14 -1.621513e-13))
13575.498274  	((-6.782970e-13 -4.241358e-09 -4.196996e-09) (3.582002e-13 -1.188961e-08 -3.626992e-10)) ((5.106631e-12 -2.068898e-14 -2.149140e-14) (-1.919276e-09 8.746426e-14 -1.623214e-13))
14265.676191  	((-6.786123e-13 -4.241104e-09 -4.197247e-09) (3.559956e-13 -1.188918e-08 -3.627905e-10)) ((5.106633e-12 -2.068959e-14 -2.149142e-14) (-1.919241e-09 8.752014e-14 -1.624886e-13))
14955.854298  	((-6.739766e-13 -4.240890e-09 -4.197470e-09) (3.541505e-13 -1.188886e-08 -3.628594e-10)) ((5.106634e-12 -2.069012e-14 -2.149158e-14) (-1.919213e-09 8.756527e-14 -1.626540e-13))
15646.032562  	((-6.732885e-13 -4.240736e-09 -4.197650e-09) (3.525128e-13 -1.188861e-08 -3.629122e-10)) ((5.106635e-12 -2.069059e-14 -2.149121e-14) (-1.919192e-09 8.761347e-14 -1.628051e-13))
16336.210955  	((-6.608508e-13 -4.240606e-09 -4.197826e-09) (3.511904e-13 -1.188843e-08 -3.629527e-10)) ((5.106636e-12 -2.069095e-14 -2.149126e-14) (-1.919175e-09 8.765213e-14 -1.629518e-13))
17026.389454  	((-6.550421e-13 -4.240510e-09 -4.197958e-09) (3.501299e-13 -1.188828e-08 -3.629844e-10)) ((5.106636e-12 -2.069125e-14 -2.149107e-14) (-1.919161e-09 8.768501e-14 -1.630832e-13))
17716.56804   	((-6.533235e-13 -4.240436e-09 -4.198020e-09) (3.493602e-13 -1.188817e-08 -3.630092e-10)) ((5.106637e-12 -2.069143e-14 -2.149095e-14) (-1.919151e-09 8.770788e-14 -1.632033e-13))
18406.746694  	((-6.550125e-13 -4.240373e-09 -4.198088e-09) (3.487102e-13 -1.188808e-08 -3.630289e-10)) ((5.106637e-12 -2.069165e-14 -2.149107e-14) (-1.919143e-09 8.772519e-14 -1.633149e-13))
19096.925405  	((-6.555727e-13 -4.240321e-09 -4.198141e-09) (3.480918e-13 -1.188802e-08 -3.630443e-10)) ((5.106638e-12 -2.069183e-14 -2.149107e-14) (-1.919136e-09 8.774080e-14 -1.634116e-13))
19787.104161  	((-6.578044e-13 -4.240279e-09 -4.198182e-09) (3.476008e-13 -1.188796e-08 -3.630565e-10)) ((5.106638e-12 -2.069198e-14 -2.149106e-14) (-1.919131e-09 8.775293e-14 -1.634970e-13))
20477.282952  	((-6.597262e-13 -4.240244e-09 -4.198214e-09) (3.471925e-13 -1.188792e-08 -3.630660e-10)) ((5.106638e-12 -2.069211e-14 -2.149105e-14) (-1.919127e-09 8.776145e-14 -1.635717e-13))
21167.461773  	((-6.610384e-13 -4.240216e-09 -4.198241e-09) (3.468387e-13 -1.188789e-08 -3.630736e-10)) ((5.106639e-12 -2.069221e-14 -2.149104e-14) (-1.919123e-09 8.776958e-14 -1.636374e-13))
21857.640617  	((-6.615887e-13 -4.240196e-09 -4.198264e-09) (3.465216e-13 -1.188787e-08 -3.630798e-10)) ((5.106639e-12 -2.069229e-14 -2.149102e-14) (-1.919121e-09 8.777850e-14 -1.636954e-13))
22547.819479  	((-6.620401e-13 -4.240179e-09 -4.198283e-09) (3.462583e-13 -1.188785e-08 -3.630848e-10)) ((5.106639e-12 -2.069235e-14 -2.149101e-14) (-1.919118e-09 8.778565e-14 -1.637458e-13))
23237.998356  	((-6.625649e-13 -4.240165e-09 -4.198298e-09) (3.460257e-13 -1.188783e-08 -3.630887e-10)) ((5.106639e-12 -2.069239e-14 -2.149098e-14) (-1.919117e-09 8.779001e-14 -1.637905e-13))
23928.177245  	((-6.631669e-13 -4.240156e-09 -4.198310e-09) (3.458231e-13 -1.188782e-08 -3.630920e-10)) ((5.106639e-12 -2.069241e-14 -2.149098e-14) (-1.919115e-09 8.779669e-14 -1.638282e-13))
24618.356144  	((-6.638067e-13 -4.240148e-09 -4.198320e-09) (3.456311e-13 -1.188781e-08 -3.630947e-10)) ((5.106639e-12 -2.069244e-14 -2.149097e-14) (-1.919114e-09 8.780249e-14 -1.638614e-13))
25308.53505   	((-6.646412e-13 -4.240142e-09 -4.198327e-09) (3.455087e-13 -1.188780e-08 -3.630968e-10)) ((5.106639e-12 -2.069247e-14 -2.149096e-14) (-1.919113e-09 8.780581e-14 -1.638903e-13))
25998.713962  	((-6.652037e-13 -4.240136e-09 -4.198333e-09) (3.454038e-13 -1.188780e-08 -3.630985e-10)) ((5.106639e-12 -2.069249e-14 -2.149096e-14) (-1.919113e-09 8.780774e-14 -1.639147e-13))
26688.892879  	((-6.656079e-13 -4.240131e-09 -4.198338e-09) (3.453139e-13 -1.188779e-08 -3.630998e-10)) ((5.106640e-12 -2.069250e-14 -2.149096e-14) (-1.919112e-09 8.780932e-14 -1.639360e-13))
27379.071799  	((-6.659451e-13 -4.240128e-09 -4.198342e-09) (3.452126e-13 -1.188779e-08 -3.631009e-10)) ((5.106640e-12 -2.069251e-14 -2.149095e-14) (-1.919112e-09 8.781172e-14 -1.639547e-13))
28069.250723  	((-6.660585e-13 -4.240124e-09 -4.198346e-09) (3.451493e-13 -1.188779e-08 -3.631017e-10)) ((5.106640e-12 -2.069253e-14 -2.149095e-14) (-1.919111e-09 8.781092e-14 -1.639706e-13))
28759.429649  	((-6.667671e-13 -4.240121e-09 -4.198349e-09) (3.450929e-13 -1.188779e-08 -3.631024e-10)) ((5.106640e-12 -2.069254e-14 -2.149094e-14) (-1.919111e-09 8.780843e-14 -1.639843e-13))
29449.608577  	((-6.664080e-13 -4.240119e-09 -4.198352e-09) (3.450613e-13 -1.188778e-08 -3.631029e-10)) ((5.106640e-12 -2.069256e-14 -2.149098e-14) (-1.919111e-09 8.781040e-14 -1.639957e-13))
30139.787507  	((-6.651341e-13 -4.240118e-09 -4.198355e-09) (3.449544e-13 -1.188778e-08 -3.631033e-10)) ((5.106640e-12 -2.069256e-14 -2.149094e-14) (-1.919111e-09 8.781583e-14 -1.640070e-13))
