# Forces      
# CofR        : (0.000000e+00 0.000000e+00 0.000000e+00)
# Time        forces(pressure viscous)	moments(pressure viscous)
0             	((0.000000e+00 0.000000e+00 0.000000e+00) (0.000000e+00 0.000000e+00 0.000000e+00)) ((0.000000e+00 0.000000e+00 0.000000e+00) (0.000000e+00 0.000000e+00 0.000000e+00))
0.012         	((9.394371e-09 -4.570382e-05 -7.420546e-06) (-3.005392e-11 -1.050353e-04 -5.534272e-09)) ((-6.795059e-09 -2.581429e-11 6.263108e-11) (-6.989705e-06 -1.765814e-12 -1.145633e-11))
0.0264        	((3.824185e-08 -6.141897e-05 -1.574829e-05) (-5.345358e-12 -9.622697e-05 -1.773601e-08)) ((2.867856e-09 -5.727089e-11 3.010449e-11) (-6.410655e-06 -3.889967e-12 -1.016983e-11))
0.04368       	((-1.089133e-08 -4.152055e-05 -8.645060e-06) (-9.110600e-11 -8.718319e-05 -4.171629e-08)) ((2.006335e-09 -3.827378e-11 3.444807e-11) (-5.818264e-06 8.199864e-13 -2.293622e-11))
0.064416      	((3.110913e-08 -4.696049e-05 -1.125259e-05) (-1.449732e-10 -7.814227e-05 -7.875719e-08)) ((4.157447e-09 -5.286626e-11 2.383607e-11) (-5.228629e-06 -9.605033e-12 -2.797048e-11))
0.0892992     	((1.921495e-09 -3.470916e-05 -7.708229e-06) (-1.565676e-10 -6.940018e-05 -1.282041e-07)) ((2.861636e-09 -4.523043e-11 1.529155e-11) (-4.661264e-06 -1.550100e-11 -9.958641e-12))
0.119159      	((2.275747e-08 -3.558235e-05 -8.503825e-06) (-3.965342e-10 -6.125986e-05 -1.868876e-07)) ((3.544158e-09 -4.722667e-11 8.363060e-12) (-4.136190e-06 -2.651227e-11 4.016202e-12))
0.154991      	((1.036777e-08 -2.724058e-05 -6.352855e-06) (-8.106273e-10 -5.396580e-05 -2.564430e-07)) ((2.447799e-09 -4.668836e-11 4.505018e-12) (-3.665383e-06 -4.288239e-11 9.539580e-12))
0.197989      	((1.692597e-08 -2.693849e-05 -6.628863e-06) (-1.234088e-09 -4.758460e-05 -3.405469e-07)) ((2.867345e-09 -4.283526e-11 8.457973e-12) (-3.252446e-06 -7.265437e-11 1.646584e-11))
0.249587      	((1.461404e-08 -2.158318e-05 -5.465822e-06) (-1.810235e-09 -4.207104e-05 -4.324541e-07)) ((2.157423e-09 -4.827156e-11 1.125149e-11) (-2.892463e-06 -9.034656e-11 1.783826e-11))
0.311504      	((1.729737e-08 -2.078549e-05 -5.599139e-06) (-1.869060e-09 -3.731131e-05 -5.122808e-07)) ((2.430841e-09 -4.023045e-11 1.664190e-11) (-2.579520e-06 -1.338554e-10 3.162706e-11))
0.385805      	((1.622057e-08 -1.731776e-05 -4.974641e-06) (-1.781440e-09 -3.318321e-05 -5.943793e-07)) ((1.991278e-09 -4.254254e-11 1.559491e-11) (-2.307046e-06 -1.720334e-10 4.138354e-11))
0.474966      	((1.463591e-08 -1.631789e-05 -5.010109e-06) (-1.906700e-09 -2.959316e-05 -6.594078e-07)) ((2.089419e-09 -4.196393e-11 1.599460e-11) (-2.069380e-06 -1.805353e-10 4.098750e-11))
0.581959      	((1.932462e-08 -1.398776e-05 -4.657706e-06) (-1.622675e-09 -2.647088e-05 -7.265819e-07)) ((1.829026e-09 -3.689899e-11 1.408415e-11) (-1.862585e-06 -1.935856e-10 3.321995e-11))
0.710351      	((1.219910e-08 -1.308842e-05 -4.607968e-06) (-9.495780e-10 -2.375206e-05 -7.857476e-07)) ((1.842405e-09 -4.924220e-11 1.218030e-11) (-1.682893e-06 -2.135284e-10 2.222486e-11))
0.864421      	((1.819201e-08 -1.142948e-05 -4.485220e-06) (-6.340065e-10 -2.137133e-05 -8.438599e-07)) ((1.684259e-09 -3.910123e-11 8.961785e-12) (-1.526046e-06 -2.406523e-10 1.384322e-11))
1.049306      	((8.480404e-09 -1.066174e-05 -4.508982e-06) (-5.221452e-10 -1.927049e-05 -8.932135e-07)) ((1.681846e-09 -5.177495e-11 5.909578e-12) (-1.388323e-06 -2.455923e-10 6.279750e-12))
1.271167      	((1.292592e-08 -9.419391e-06 -4.508911e-06) (-9.363264e-10 -1.740171e-05 -9.396602e-07)) ((1.575426e-09 -4.439955e-11 3.712590e-12) (-1.266348e-06 -2.493816e-10 -1.333281e-11))
1.5374        	((6.029412e-09 -8.745923e-06 -4.579939e-06) (-9.723220e-10 -1.573719e-05 -9.791900e-07)) ((1.562331e-09 -5.620971e-11 2.134947e-12) (-1.158247e-06 -2.801132e-10 -4.824525e-11))
1.85688       	((1.346968e-08 -7.803827e-06 -4.650933e-06) (-6.477402e-10 -1.426111e-05 -1.017369e-06)) ((1.488481e-09 -5.017222e-11 1.840381e-12) (-1.062784e-06 -2.973467e-10 -7.788691e-11))
2.240256      	((9.022608e-09 -7.264440e-06 -4.814266e-06) (-4.074552e-10 -1.296424e-05 -1.051507e-06)) ((1.477092e-09 -5.662463e-11 3.065593e-12) (-9.794085e-07 -2.940684e-10 -9.093552e-11))
2.700307      	((1.203051e-08 -6.569665e-06 -4.980297e-06) (6.824095e-12 -1.183366e-05 -1.087597e-06)) ((1.432227e-09 -5.405299e-11 4.351375e-12) (-9.070879e-07 -2.919866e-10 -1.020599e-10))
3.252369      	((9.819245e-09 -6.174386e-06 -5.203680e-06) (1.927787e-10 -1.085265e-05 -1.127482e-06)) ((1.425556e-09 -5.969802e-11 4.578518e-12) (-8.446041e-07 -2.771076e-10 -1.154346e-10))
3.914842      	((9.998086e-09 -5.700395e-06 -5.430922e-06) (2.885217e-10 -9.996128e-06 -1.172150e-06)) ((1.402370e-09 -6.034623e-11 4.898464e-12) (-7.902560e-07 -2.726379e-10 -1.306418e-10))
4.709811      	((9.284515e-09 -5.431117e-06 -5.726056e-06) (7.608267e-11 -9.240264e-06 -1.220505e-06)) ((1.402559e-09 -6.552674e-11 4.640711e-12) (-7.425482e-07 -2.725308e-10 -1.203595e-10))
5.663773      	((9.234349e-09 -5.141295e-06 -6.006235e-06) (-7.384918e-11 -8.566775e-06 -1.276116e-06)) ((1.394423e-09 -6.774731e-11 4.525609e-12) (-7.003011e-07 -2.774968e-10 -1.007196e-10))
6.808528      	((1.055006e-08 -4.959029e-06 -6.313380e-06) (3.006080e-10 -7.961626e-06 -1.340356e-06)) ((1.399706e-09 -7.177976e-11 4.487325e-12) (-6.627727e-07 -2.802661e-10 -8.480104e-11))
8.182233      	((1.128869e-08 -4.768492e-06 -6.605909e-06) (8.159448e-10 -7.416358e-06 -1.412718e-06)) ((1.399768e-09 -7.396869e-11 4.637168e-12) (-6.293845e-07 -2.781841e-10 -7.250784e-11))
9.83068       	((1.185270e-08 -4.658421e-06 -6.940094e-06) (1.491268e-09 -6.925492e-06 -1.490830e-06)) ((1.408217e-09 -7.694081e-11 4.941805e-12) (-5.996181e-07 -2.756004e-10 -6.846231e-11))
11.808816     	((1.189708e-08 -4.582363e-06 -7.294842e-06) (9.879442e-10 -6.483453e-06 -1.579673e-06)) ((1.416092e-09 -7.886363e-11 5.031546e-12) (-5.731106e-07 -2.642203e-10 -6.626676e-11))
14.182579     	((1.303885e-08 -4.582094e-06 -7.666817e-06) (7.766783e-10 -6.089045e-06 -1.679746e-06)) ((1.428363e-09 -8.138418e-11 5.110833e-12) (-5.496839e-07 -2.616309e-10 -6.897068e-11))
17.031095     	((1.237619e-08 -4.603568e-06 -8.038758e-06) (6.611226e-10 -5.744608e-06 -1.787666e-06)) ((1.440213e-09 -8.319400e-11 5.096999e-12) (-5.292188e-07 -2.574528e-10 -6.381607e-11))
20.449314     	((1.260739e-08 -4.688596e-06 -8.440972e-06) (5.521251e-10 -5.452680e-06 -1.902366e-06)) ((1.455537e-09 -8.524589e-11 5.306325e-12) (-5.117055e-07 -2.552464e-10 -4.894927e-11))
24.43817      	((1.342607e-08 -4.793470e-06 -8.833658e-06) (5.519267e-10 -5.217410e-06 -2.021657e-06)) ((1.470611e-09 -8.696143e-11 5.515446e-12) (-4.972458e-07 -2.546408e-10 -3.168541e-11))
28.996538     	((1.535803e-08 -4.935343e-06 -9.196349e-06) (5.393299e-10 -5.038820e-06 -2.138584e-06)) ((1.483979e-09 -8.871678e-11 5.664657e-12) (-4.855936e-07 -2.541621e-10 -1.364267e-11))
34.123697     	((1.629628e-08 -5.090830e-06 -9.516278e-06) (6.257673e-10 -4.913455e-06 -2.246237e-06)) ((1.493753e-09 -9.024399e-11 5.774894e-12) (-4.764465e-07 -2.526919e-10 -1.354587e-13))
39.807862     	((1.674478e-08 -5.279495e-06 -9.785566e-06) (5.224438e-10 -4.834120e-06 -2.337546e-06)) ((1.502404e-09 -9.197649e-11 5.935964e-12) (-4.695144e-07 -2.525888e-10 7.615153e-12))
45.490675     	((1.623537e-08 -5.453082e-06 -1.000032e-05) (3.152566e-10 -4.793038e-06 -2.403409e-06)) ((1.511469e-09 -9.342092e-11 6.085969e-12) (-4.647192e-07 -2.535824e-10 9.019945e-12))
51.175903     	((1.564829e-08 -5.612398e-06 -1.014153e-05) (8.787561e-11 -4.775804e-06 -2.445040e-06)) ((1.520309e-09 -9.450983e-11 6.219671e-12) (-4.615949e-07 -2.481291e-10 7.204877e-12))
56.867091     	((1.551543e-08 -5.735358e-06 -1.024673e-05) (-1.495736e-10 -4.771871e-06 -2.468181e-06)) ((1.527959e-09 -9.510144e-11 6.353351e-12) (-4.596973e-07 -2.410563e-10 3.072948e-12))
62.566842     	((1.529741e-08 -5.831108e-06 -1.032626e-05) (-3.730231e-10 -4.773510e-06 -2.479541e-06)) ((1.534427e-09 -9.542764e-11 6.447047e-12) (-4.585751e-07 -2.334364e-10 -3.620287e-12))
68.27661      	((1.576312e-08 -5.898766e-06 -1.039079e-05) (-4.972112e-10 -4.776710e-06 -2.483932e-06)) ((1.539118e-09 -9.552028e-11 6.529143e-12) (-4.579432e-07 -2.277881e-10 -1.202086e-11))
73.997279     	((1.614022e-08 -5.941980e-06 -1.043895e-05) (-5.456138e-10 -4.779274e-06 -2.485148e-06)) ((1.542410e-09 -9.556956e-11 6.648068e-12) (-4.575840e-07 -2.254319e-10 -1.938673e-11))
79.728699     	((1.665368e-08 -5.969219e-06 -1.047748e-05) (-5.607124e-10 -4.780822e-06 -2.485299e-06)) ((1.544421e-09 -9.561072e-11 6.766182e-12) (-4.573715e-07 -2.260668e-10 -2.541229e-11))
85.468796     	((1.720398e-08 -5.986590e-06 -1.050925e-05) (-5.136768e-10 -4.781731e-06 -2.485521e-06)) ((1.545680e-09 -9.566613e-11 6.876179e-12) (-4.572358e-07 -2.295799e-10 -3.120017e-11))
91.183585     	((1.760135e-08 -6.001050e-06 -1.053751e-05) (-4.274632e-10 -4.782484e-06 -2.485711e-06)) ((1.547320e-09 -9.575286e-11 6.987082e-12) (-4.571698e-07 -2.342102e-10 -3.548168e-11))
96.88041      	((1.783753e-08 -6.011013e-06 -1.056194e-05) (-3.386291e-10 -4.783522e-06 -2.485480e-06)) ((1.548668e-09 -9.584791e-11 7.018631e-12) (-4.571730e-07 -2.393808e-10 -3.741603e-11))
102.565104    	((1.764455e-08 -6.015892e-06 -1.058368e-05) (-2.808043e-10 -4.784797e-06 -2.485406e-06)) ((1.549276e-09 -9.596099e-11 7.003852e-12) (-4.571947e-07 -2.442293e-10 -3.801718e-11))
108.241941    	((1.749207e-08 -6.018074e-06 -1.060250e-05) (-2.442936e-10 -4.786169e-06 -2.485467e-06)) ((1.549452e-09 -9.608306e-11 7.004260e-12) (-4.572197e-07 -2.479062e-10 -3.768228e-11))
113.913568    	((1.750940e-08 -6.017657e-06 -1.061933e-05) (-2.035640e-10 -4.787526e-06 -2.485645e-06)) ((1.549354e-09 -9.621297e-11 7.019036e-12) (-4.572419e-07 -2.507733e-10 -3.709703e-11))
119.581366    	((1.732746e-08 -6.016409e-06 -1.063326e-05) (-1.774786e-10 -4.788784e-06 -2.485965e-06)) ((1.549151e-09 -9.634801e-11 7.043967e-12) (-4.572593e-07 -2.514390e-10 -3.690948e-11))
125.246035    	((1.728026e-08 -6.015127e-06 -1.064660e-05) (-1.567210e-10 -4.789968e-06 -2.486394e-06)) ((1.548889e-09 -9.647101e-11 7.077475e-12) (-4.572748e-07 -2.504122e-10 -3.748402e-11))
130.907863    	((1.747108e-08 -6.013677e-06 -1.066124e-05) (-1.393168e-10 -4.791131e-06 -2.486909e-06)) ((1.548611e-09 -9.658907e-11 7.111244e-12) (-4.572897e-07 -2.482541e-10 -3.907959e-11))
136.566947    	((1.735884e-08 -6.010570e-06 -1.067548e-05) (-1.448085e-10 -4.792232e-06 -2.487468e-06)) ((1.548307e-09 -9.669570e-11 7.139193e-12) (-4.573007e-07 -2.457152e-10 -4.180411e-11))
142.223403    	((1.769794e-08 -6.006675e-06 -1.069124e-05) (-1.403027e-10 -4.793265e-06 -2.487971e-06)) ((1.548006e-09 -9.679233e-11 7.163878e-12) (-4.573068e-07 -2.439717e-10 -4.517276e-11))
147.87742     	((1.790490e-08 -6.000532e-06 -1.070743e-05) (-1.376812e-10 -4.794158e-06 -2.488352e-06)) ((1.547678e-09 -9.687523e-11 7.183714e-12) (-4.573042e-07 -2.428014e-10 -4.863552e-11))
153.529241    	((1.866147e-08 -5.992278e-06 -1.072546e-05) (-1.133395e-10 -4.794826e-06 -2.488541e-06)) ((1.547326e-09 -9.694684e-11 7.195574e-12) (-4.572884e-07 -2.431748e-10 -5.159693e-11))
159.179131    	((1.955782e-08 -5.981407e-06 -1.074461e-05) (-5.875202e-11 -4.795171e-06 -2.488491e-06)) ((1.546929e-09 -9.700903e-11 7.205976e-12) (-4.572554e-07 -2.461530e-10 -5.355574e-11))
164.827335    	((2.011269e-08 -5.968238e-06 -1.076350e-05) (1.296559e-13 -4.795133e-06 -2.488164e-06)) ((1.546504e-09 -9.707369e-11 7.215629e-12) (-4.572011e-07 -2.504437e-10 -5.405374e-11))
170.474039    	((2.115495e-08 -5.953723e-06 -1.078203e-05) (6.792952e-11 -4.794644e-06 -2.487578e-06)) ((1.546082e-09 -9.713948e-11 7.223933e-12) (-4.571242e-07 -2.553450e-10 -5.324118e-11))
176.119383    	((2.181677e-08 -5.937874e-06 -1.079923e-05) (1.437719e-10 -4.793701e-06 -2.486852e-06)) ((1.545708e-09 -9.720611e-11 7.236858e-12) (-4.570275e-07 -2.603041e-10 -5.132713e-11))
181.763474    	((2.195104e-08 -5.920856e-06 -1.081729e-05) (1.937665e-10 -4.792335e-06 -2.486049e-06)) ((1.545305e-09 -9.728999e-11 7.246987e-12) (-4.569130e-07 -2.632108e-10 -4.886726e-11))
187.406377    	((2.303039e-08 -5.904059e-06 -1.083761e-05) (2.636682e-10 -4.790605e-06 -2.485200e-06)) ((1.544904e-09 -9.737434e-11 7.252913e-12) (-4.567825e-07 -2.660568e-10 -4.621557e-11))
193.048111    	((2.363716e-08 -5.888112e-06 -1.085673e-05) (3.399739e-10 -4.788640e-06 -2.484355e-06)) ((1.544543e-09 -9.748523e-11 7.260552e-12) (-4.566418e-07 -2.689376e-10 -4.345755e-11))
198.688654    	((2.329450e-08 -5.874067e-06 -1.087622e-05) (3.692159e-10 -4.786579e-06 -2.483640e-06)) ((1.544141e-09 -9.764163e-11 7.267890e-12) (-4.564992e-07 -2.696833e-10 -4.124228e-11))
204.327951    	((2.295744e-08 -5.864090e-06 -1.089389e-05) (3.494512e-10 -4.784629e-06 -2.483194e-06)) ((1.543799e-09 -9.780375e-11 7.277718e-12) (-4.563648e-07 -2.672598e-10 -4.061770e-11))
209.965923    	((2.305609e-08 -5.858670e-06 -1.091160e-05) (3.375590e-10 -4.783087e-06 -2.483171e-06)) ((1.543640e-09 -9.793898e-11 7.287953e-12) (-4.562522e-07 -2.632526e-10 -4.232253e-11))
215.602493    	((2.272679e-08 -5.856998e-06 -1.093290e-05) (3.266842e-10 -4.782184e-06 -2.483636e-06)) ((1.543586e-09 -9.804946e-11 7.301845e-12) (-4.561719e-07 -2.588917e-10 -4.660666e-11))
221.237595    	((2.272476e-08 -5.857875e-06 -1.095650e-05) (3.275129e-10 -4.782039e-06 -2.484500e-06)) ((1.543597e-09 -9.813014e-11 7.311820e-12) (-4.561273e-07 -2.566331e-10 -5.251707e-11))
226.871161    	((2.241125e-08 -5.860526e-06 -1.097849e-05) (3.389898e-10 -4.782675e-06 -2.485577e-06)) ((1.543663e-09 -9.820273e-11 7.327381e-12) (-4.561168e-07 -2.568744e-10 -5.879013e-11))
232.503102    	((2.220339e-08 -5.864145e-06 -1.100105e-05) (3.666693e-10 -4.784009e-06 -2.486656e-06)) ((1.543766e-09 -9.826209e-11 7.347278e-12) (-4.561359e-07 -2.594775e-10 -6.402199e-11))
238.133325    	((2.189200e-08 -5.868246e-06 -1.102214e-05) (4.052486e-10 -4.785891e-06 -2.487617e-06)) ((1.543879e-09 -9.831788e-11 7.365599e-12) (-4.561790e-07 -2.637120e-10 -6.700468e-11))
