# Forces      
# CofR        : (0.000000e+00 0.000000e+00 0.000000e+00)
# Time        forces(pressure viscous)	moments(pressure viscous)
0             	((0.000000e+00 0.000000e+00 0.000000e+00) (0.000000e+00 0.000000e+00 0.000000e+00)) ((0.000000e+00 0.000000e+00 0.000000e+00) (0.000000e+00 0.000000e+00 0.000000e+00))
0.012         	((1.069113e-05 -4.224433e-10 3.370438e-06) (2.637993e-05 -1.350875e-13 2.015274e-09)) ((1.746569e-13 -1.722275e-09 1.384953e-13) (1.877536e-14 -1.755511e-06 8.716299e-15))
0.0264        	((1.587709e-05 -8.968335e-09 5.319132e-06) (2.416528e-05 -2.419976e-12 2.916817e-10)) ((9.925782e-14 8.725559e-10 3.569222e-14) (7.451100e-14 -1.609869e-06 -5.991353e-14))
0.04368       	((1.008307e-05 5.355663e-09 3.213726e-06) (2.188275e-05 2.569091e-12 -2.710983e-09)) ((2.085578e-13 6.122535e-10 9.893651e-14) (1.870319e-13 -1.460246e-06 -2.558751e-13))
0.064416      	((1.196952e-05 -6.601885e-09 3.954419e-06) (1.958501e-05 5.421576e-12 -6.059716e-09)) ((1.381759e-13 1.202871e-09 -1.244553e-14) (2.059711e-13 -1.310178e-06 -5.166264e-13))
0.0892992     	((8.548802e-06 2.908099e-09 2.765762e-06) (1.733997e-05 8.183972e-12 -9.420115e-09)) ((3.567540e-14 8.460103e-10 9.469705e-14) (4.552415e-13 -1.164129e-06 -4.647892e-13))
0.119159      	((8.995640e-06 -3.211708e-09 2.890221e-06) (1.522106e-05 5.964350e-12 -1.296073e-08)) ((9.251164e-14 1.033623e-09 1.988405e-14) (4.377404e-13 -1.027012e-06 -4.251407e-13))
0.154991      	((6.681664e-06 1.606297e-09 2.192132e-06) (1.329572e-05 1.420520e-12 -1.747833e-08)) ((-3.377886e-14 7.138019e-10 3.197851e-14) (5.072414e-13 -9.018188e-07 -3.220034e-13))
0.197989      	((6.701049e-06 -1.163753e-09 2.101796e-06) (1.159572e-05 -2.933765e-12 -2.290683e-08)) ((-2.152479e-14 8.162964e-10 -1.775139e-15) (4.861703e-13 -7.911516e-07 -1.237506e-13))
0.249587      	((5.175900e-06 6.992455e-10 1.687178e-06) (1.013920e-05 -3.832298e-12 -2.908424e-08)) ((-3.352362e-14 5.839608e-10 3.252091e-15) (4.924665e-13 -6.957071e-07 7.801560e-14))
0.311504      	((5.072663e-06 -2.000311e-10 1.553051e-06) (8.920539e-06 -3.184458e-12 -3.504876e-08)) ((-6.601420e-14 6.536942e-10 1.076113e-15) (7.574240e-13 -6.153406e-07 2.168367e-13))
0.385805      	((4.084493e-06 1.421103e-12 1.306440e-06) (7.902693e-06 -3.371953e-12 -4.104231e-08)) ((-1.315082e-14 4.915804e-10 -6.680286e-16) (8.005356e-13 -5.480730e-07 2.916814e-13))
0.474966      	((3.961164e-06 -1.518460e-10 1.182104e-06) (7.048523e-06 -4.328091e-12 -4.465533e-08)) ((-8.051950e-14 5.396886e-10 -6.098419e-15) (8.699557e-13 -4.916056e-07 3.493515e-13))
0.581959      	((3.303754e-06 -2.491231e-10 1.026760e-06) (6.321209e-06 -7.215457e-12 -4.868177e-08)) ((4.769791e-15 4.275756e-10 -2.572779e-14) (1.220989e-13 -4.434848e-07 2.544125e-13))
0.710351      	((3.170972e-06 5.720123e-11 9.171965e-07) (5.692596e-06 3.019503e-12 -4.943949e-08)) ((-8.996439e-14 4.576459e-10 3.835826e-15) (-2.659712e-14 -4.019363e-07 -8.753892e-14))
0.864421      	((2.724517e-06 -1.525110e-10 8.096295e-07) (5.140654e-06 5.576025e-12 -5.252482e-08)) ((-2.293409e-14 3.904568e-10 -1.744049e-15) (1.517949e-13 -3.655514e-07 -6.395945e-14))
1.049306      	((2.568176e-06 -6.545128e-11 7.068516e-07) (4.650740e-06 -1.430632e-12 -5.416864e-08)) ((-1.073535e-13 4.000228e-10 -5.134989e-14) (5.548979e-13 -3.333605e-07 -2.822665e-15))
1.271167      	((2.243640e-06 -8.364841e-11 6.175554e-07) (4.211466e-06 -9.413120e-12 -5.768591e-08)) ((-8.304833e-14 3.602678e-10 -6.084683e-14) (8.725107e-13 -3.045516e-07 6.321675e-13))
1.5374        	((2.085914e-06 1.040605e-11 5.290644e-07) (3.816085e-06 -2.252441e-11 -6.033778e-08)) ((-1.480090e-13 3.527521e-10 -8.277179e-14) (1.735924e-12 -2.786972e-07 1.316399e-12))
1.85688       	((1.839107e-06 -1.629429e-10 4.533139e-07) (3.460357e-06 -3.013244e-11 -6.371276e-08)) ((-1.576884e-13 3.248105e-10 -9.355267e-14) (3.100884e-12 -2.555217e-07 1.176515e-12))
2.240256      	((1.701873e-06 -5.398090e-11 3.834917e-07) (3.143580e-06 -3.576696e-11 -6.675220e-08)) ((-1.677467e-13 3.140343e-10 -1.154435e-13) (5.388495e-12 -2.349473e-07 6.942576e-14))
2.700307      	((1.516929e-06 -2.514913e-10 3.208529e-07) (2.864269e-06 -4.542917e-11 -6.940892e-08)) ((-1.318925e-13 2.939230e-10 -1.219131e-13) (7.670488e-12 -2.168481e-07 -2.356319e-12))
3.252369      	((1.402554e-06 -3.681618e-10 2.635641e-07) (2.619073e-06 -5.192562e-11 -7.304295e-08)) ((-9.326308e-14 2.875314e-10 -1.087834e-13) (9.572277e-12 -2.009388e-07 -5.228956e-12))
3.914842      	((1.266103e-06 -4.528542e-10 2.130648e-07) (2.404350e-06 -7.242723e-11 -7.533200e-08)) ((-1.040708e-13 2.745967e-10 -1.166083e-13) (1.024887e-11 -1.870712e-07 -7.772062e-12))
4.709811      	((1.174280e-06 -4.069714e-10 1.597329e-07) (2.214953e-06 -8.263360e-11 -7.792497e-08)) ((-9.371643e-14 2.692182e-10 -1.179184e-13) (9.451941e-12 -1.748708e-07 -9.599206e-12))
5.663773      	((1.069075e-06 -6.286358e-10 1.089245e-07) (2.046274e-06 -8.616084e-11 -8.081338e-08)) ((-1.117629e-13 2.609140e-10 -9.107865e-14) (8.467074e-12 -1.640469e-07 -1.097561e-11))
6.808528      	((9.921852e-07 -4.570486e-10 5.925165e-08) (1.894308e-06 -7.371994e-11 -8.362211e-08)) ((-8.226405e-14 2.561507e-10 -1.071339e-13) (7.136291e-12 -1.543457e-07 -1.143614e-11))
8.182233      	((9.115748e-07 -3.654481e-10 1.133584e-08) (1.756257e-06 -4.829518e-11 -8.667825e-08)) ((-7.019902e-14 2.508084e-10 -9.215655e-14) (6.435163e-12 -1.455686e-07 -1.099820e-11))
9.83068       	((8.499976e-07 -1.688514e-10 -3.430873e-08) (1.630278e-06 -3.610681e-11 -8.964585e-08)) ((-6.011899e-14 2.473840e-10 -9.434711e-14) (6.867604e-12 -1.376000e-07 -9.797941e-12))
11.808816     	((7.874435e-07 -1.977470e-10 -7.960917e-08) (1.514548e-06 -1.382714e-11 -9.259699e-08)) ((-4.439618e-14 2.442300e-10 -7.657827e-14) (7.381735e-12 -1.303308e-07 -7.909162e-12))
14.182579     	((7.349266e-07 -2.242541e-10 -1.249973e-07) (1.407651e-06 -2.367409e-11 -9.568198e-08)) ((-3.434376e-14 2.419913e-10 -7.132864e-14) (7.787516e-12 -1.236903e-07 -5.880056e-12))
17.031095     	((6.831130e-07 -3.961463e-10 -1.700687e-07) (1.309076e-06 -7.040045e-11 -9.907097e-08)) ((-3.180790e-14 2.397986e-10 -5.966947e-14) (7.083864e-12 -1.176379e-07 -3.824024e-12))
20.449314     	((6.421298e-07 -4.589983e-10 -2.141461e-07) (1.218954e-06 -1.321068e-10 -1.029434e-07)) ((-2.988759e-14 2.382439e-10 -4.667277e-14) (5.674096e-12 -1.121745e-07 -1.896329e-12))
24.551176     	((6.058490e-07 -5.006693e-10 -2.560490e-07) (1.137236e-06 -1.639877e-10 -1.075342e-07)) ((-2.390886e-14 2.370328e-10 -4.058585e-14) (3.877454e-12 -1.072901e-07 -3.264583e-13))
29.473411     	((5.764788e-07 -4.717662e-10 -2.968276e-07) (1.063928e-06 -1.760992e-10 -1.129207e-07)) ((-2.419593e-14 2.362762e-10 -2.891489e-14) (2.465564e-12 -1.029593e-07 3.829912e-13))
35.380094     	((5.513020e-07 -5.033334e-10 -3.342907e-07) (9.984576e-07 -1.709324e-10 -1.192454e-07)) ((-2.674845e-14 2.356893e-10 -1.942230e-14) (1.614118e-12 -9.913580e-08 4.918773e-14))
42.468112     	((5.316680e-07 -4.742388e-10 -3.697379e-07) (9.401494e-07 -1.683868e-10 -1.264590e-07)) ((-1.977189e-14 2.353503e-10 -2.330563e-14) (1.004596e-12 -9.578241e-08 -4.960093e-14))
50.973735     	((5.174193e-07 -4.251178e-10 -4.052523e-07) (8.886951e-07 -1.723932e-10 -1.346207e-07)) ((-1.407243e-14 2.350952e-10 -2.250594e-14) (5.245498e-13 -9.286857e-08 2.580756e-13))
61.180482     	((5.093032e-07 -4.277537e-10 -4.395432e-07) (8.439524e-07 -1.714237e-10 -1.437956e-07)) ((-1.193458e-14 2.349981e-10 -2.321294e-14) (2.090825e-13 -9.036075e-08 3.676018e-13))
73.428578     	((5.066592e-07 -4.258338e-10 -4.722152e-07) (8.057246e-07 -1.555012e-10 -1.540081e-07)) ((-9.984633e-15 2.350262e-10 -2.323373e-14) (-2.334168e-14 -8.822136e-08 3.104626e-13))
87.865088     	((5.096204e-07 -4.521749e-10 -5.023217e-07) (7.740556e-07 -1.441729e-10 -1.650367e-07)) ((-9.329451e-15 2.352264e-10 -2.347921e-14) (-3.182457e-13 -8.643228e-08 2.566863e-13))
104.490581    	((5.168156e-07 -4.437463e-10 -5.280724e-07) (7.489314e-07 -1.372158e-10 -1.763337e-07)) ((-7.466164e-15 2.355543e-10 -2.268617e-14) (-5.394378e-13 -8.497000e-08 6.418660e-13))
123.306347    	((5.285082e-07 -4.460017e-10 -5.484134e-07) (7.301855e-07 -1.357707e-10 -1.873149e-07)) ((-6.097282e-15 2.359581e-10 -2.171319e-14) (-9.334530e-13 -8.381061e-08 1.200468e-12))
144.314046    	((5.429659e-07 -4.236726e-10 -5.634223e-07) (7.173720e-07 -1.331849e-10 -1.972391e-07)) ((-5.313789e-15 2.363862e-10 -2.220480e-14) (-1.425319e-12 -8.292685e-08 1.782791e-12))
166.254388    	((5.570278e-07 -3.966864e-10 -5.747402e-07) (7.097587e-07 -1.342547e-10 -2.053008e-07)) ((-5.793909e-15 2.368770e-10 -2.289515e-14) (-2.000737e-12 -8.229780e-08 2.318746e-12))
188.217942    	((5.675148e-07 -3.679939e-10 -5.839353e-07) (7.058596e-07 -1.328153e-10 -2.111947e-07)) ((-5.856244e-15 2.372769e-10 -2.363561e-14) (-2.549841e-12 -8.187156e-08 2.728189e-12))
210.203039    	((5.742414e-07 -3.490172e-10 -5.913829e-07) (7.041752e-07 -1.315067e-10 -2.151312e-07)) ((-6.186866e-15 2.375639e-10 -2.427707e-14) (-3.001184e-12 -8.159038e-08 2.816083e-12))
232.205163    	((5.776773e-07 -3.392378e-10 -5.970355e-07) (7.035343e-07 -1.327414e-10 -2.175636e-07)) ((-7.125592e-15 2.377498e-10 -2.379105e-14) (-3.391720e-12 -8.140494e-08 2.712971e-12))
254.220854    	((5.790689e-07 -3.422159e-10 -6.014464e-07) (7.032219e-07 -1.363791e-10 -2.189452e-07)) ((-7.557424e-15 2.378570e-10 -2.269767e-14) (-3.788312e-12 -8.127932e-08 2.496653e-12))
276.249709    	((5.791847e-07 -3.405287e-10 -6.050507e-07) (7.029073e-07 -1.402964e-10 -2.196963e-07)) ((-7.680577e-15 2.379001e-10 -2.193162e-14) (-4.113181e-12 -8.118886e-08 2.169887e-12))
298.289569    	((5.783453e-07 -3.392460e-10 -6.081803e-07) (7.024714e-07 -1.429581e-10 -2.201128e-07)) ((-7.615283e-15 2.378997e-10 -2.117913e-14) (-4.335142e-12 -8.111818e-08 1.785201e-12))
320.338169    	((5.772648e-07 -3.337973e-10 -6.107886e-07) (7.019052e-07 -1.443718e-10 -2.203843e-07)) ((-7.817711e-15 2.378827e-10 -2.129539e-14) (-4.412802e-12 -8.105826e-08 1.404613e-12))
342.394084    	((5.764914e-07 -3.299475e-10 -6.129417e-07) (7.012990e-07 -1.450343e-10 -2.206493e-07)) ((-8.050016e-15 2.378691e-10 -2.100418e-14) (-4.399596e-12 -8.100729e-08 1.100265e-12))
364.455899    	((5.756382e-07 -3.271772e-10 -6.149489e-07) (7.007242e-07 -1.452521e-10 -2.209709e-07)) ((-8.374410e-15 2.378480e-10 -2.068303e-14) (-4.371263e-12 -8.096432e-08 8.905245e-13))
386.522306    	((5.748915e-07 -3.257720e-10 -6.167413e-07) (7.002177e-07 -1.445961e-10 -2.213520e-07)) ((-8.188170e-15 2.378253e-10 -2.050148e-14) (-4.331360e-12 -8.092825e-08 7.577421e-13))
408.592324    	((5.743649e-07 -3.207643e-10 -6.184010e-07) (6.998074e-07 -1.431984e-10 -2.217655e-07)) ((-7.983884e-15 2.378049e-10 -2.023739e-14) (-4.279279e-12 -8.089846e-08 6.955797e-13))
430.665383    	((5.740528e-07 -3.134967e-10 -6.199020e-07) (6.995079e-07 -1.417047e-10 -2.221861e-07)) ((-7.564757e-15 2.377876e-10 -1.997044e-14) (-4.220725e-12 -8.087465e-08 7.016830e-13))
452.741244    	((5.736461e-07 -3.073379e-10 -6.212931e-07) (6.993047e-07 -1.399728e-10 -2.225992e-07)) ((-7.737385e-15 2.377674e-10 -1.958975e-14) (-4.178077e-12 -8.085560e-08 7.493806e-13))
474.819694    	((5.732069e-07 -2.967168e-10 -6.225499e-07) (6.991740e-07 -1.381008e-10 -2.229833e-07)) ((-7.912196e-15 2.377481e-10 -1.915068e-14) (-4.122860e-12 -8.084021e-08 8.102331e-13))
496.900587    	((5.726942e-07 -2.990936e-10 -6.237164e-07) (6.990857e-07 -1.364596e-10 -2.233230e-07)) ((-9.059891e-15 2.377288e-10 -1.890859e-14) (-4.078919e-12 -8.082735e-08 8.689251e-13))
518.983838    	((5.722916e-07 -3.015844e-10 -6.247209e-07) (6.990248e-07 -1.360194e-10 -2.236148e-07)) ((-1.039677e-14 2.377142e-10 -1.878627e-14) (-4.118649e-12 -8.081663e-08 9.263224e-13))
541.069381    	((5.718291e-07 -2.968916e-10 -6.256223e-07) (6.989751e-07 -1.361593e-10 -2.238765e-07)) ((-1.041028e-14 2.376996e-10 -1.845148e-14) (-4.185420e-12 -8.080735e-08 9.762426e-13))
563.157109    	((5.713930e-07 -2.954313e-10 -6.264622e-07) (6.989318e-07 -1.360537e-10 -2.241201e-07)) ((-1.046237e-14 2.376846e-10 -1.815791e-14) (-4.290287e-12 -8.079919e-08 9.954714e-13))
585.246856    	((5.709234e-07 -2.927468e-10 -6.272778e-07) (6.988921e-07 -1.360041e-10 -2.243570e-07)) ((-1.069952e-14 2.376674e-10 -1.786598e-14) (-4.369495e-12 -8.079171e-08 9.933148e-13))
607.338438    	((5.705087e-07 -2.903274e-10 -6.280463e-07) (6.988610e-07 -1.358707e-10 -2.245881e-07)) ((-1.086603e-14 2.376507e-10 -1.756091e-14) (-4.421777e-12 -8.078489e-08 9.781447e-13))
629.431696    	((5.701177e-07 -2.922415e-10 -6.287740e-07) (6.988409e-07 -1.361843e-10 -2.248131e-07)) ((-1.087340e-14 2.376361e-10 -1.721540e-14) (-4.473833e-12 -8.077878e-08 9.553371e-13))
651.526509    	((5.698115e-07 -2.922046e-10 -6.294387e-07) (6.988369e-07 -1.366887e-10 -2.250341e-07)) ((-1.080832e-14 2.376263e-10 -1.686511e-14) (-4.538148e-12 -8.077367e-08 9.180174e-13))
673.622774    	((5.695429e-07 -2.939415e-10 -6.300650e-07) (6.988518e-07 -1.373525e-10 -2.252535e-07)) ((-1.078089e-14 2.376192e-10 -1.644469e-14) (-4.607852e-12 -8.076972e-08 8.743451e-13))
695.720405    	((5.693115e-07 -2.956313e-10 -6.306266e-07) (6.988861e-07 -1.383542e-10 -2.254714e-07)) ((-1.054494e-14 2.376145e-10 -1.616990e-14) (-4.680997e-12 -8.076695e-08 8.275757e-13))
717.819317    	((5.690956e-07 -2.957756e-10 -6.311576e-07) (6.989358e-07 -1.391585e-10 -2.256872e-07)) ((-1.039844e-14 2.376113e-10 -1.593107e-14) (-4.752844e-12 -8.076516e-08 7.753190e-13))
739.919434    	((5.689360e-07 -2.960673e-10 -6.316265e-07) (6.990003e-07 -1.397846e-10 -2.258985e-07)) ((-1.036241e-14 2.376101e-10 -1.562366e-14) (-4.813452e-12 -8.076428e-08 7.185239e-13))
762.020695    	((5.687781e-07 -2.972730e-10 -6.320707e-07) (6.990759e-07 -1.402811e-10 -2.261040e-07)) ((-1.039955e-14 2.376095e-10 -1.538380e-14) (-4.869069e-12 -8.076411e-08 6.636675e-13))
784.123043    	((5.686373e-07 -2.974644e-10 -6.324790e-07) (6.991595e-07 -1.408103e-10 -2.263020e-07)) ((-1.060198e-14 2.376097e-10 -1.511621e-14) (-4.933326e-12 -8.076448e-08 6.130443e-13))
806.22642     	((5.685123e-07 -2.973184e-10 -6.328620e-07) (6.992493e-07 -1.413553e-10 -2.264914e-07)) ((-1.087187e-14 2.376105e-10 -1.492676e-14) (-5.000478e-12 -8.076526e-08 5.698138e-13))
828.330766    	((5.683841e-07 -2.960252e-10 -6.332208e-07) (6.993430e-07 -1.418545e-10 -2.266721e-07)) ((-1.113073e-14 2.376112e-10 -1.478984e-14) (-5.062934e-12 -8.076633e-08 5.329762e-13))
850.436026    	((5.682481e-07 -2.945140e-10 -6.335717e-07) (6.994370e-07 -1.422635e-10 -2.268449e-07)) ((-1.127231e-14 2.376119e-10 -1.466304e-14) (-5.117670e-12 -8.076752e-08 4.986842e-13))
872.542146    	((5.681459e-07 -2.917133e-10 -6.338955e-07) (6.995315e-07 -1.425021e-10 -2.270094e-07)) ((-1.141094e-14 2.376132e-10 -1.451568e-14) (-5.159023e-12 -8.076883e-08 4.712847e-13))
894.649084    	((5.680542e-07 -2.903502e-10 -6.341807e-07) (6.996267e-07 -1.425887e-10 -2.271638e-07)) ((-1.160853e-14 2.376148e-10 -1.437063e-14) (-5.183511e-12 -8.077030e-08 4.571169e-13))
916.756802    	((5.679720e-07 -2.879891e-10 -6.344278e-07) (6.997215e-07 -1.425197e-10 -2.273083e-07)) ((-1.177705e-14 2.376167e-10 -1.429225e-14) (-5.189376e-12 -8.077187e-08 4.573277e-13))
938.86526     	((5.678833e-07 -2.849550e-10 -6.346561e-07) (6.998152e-07 -1.422697e-10 -2.274437e-07)) ((-1.190550e-14 2.376183e-10 -1.425623e-14) (-5.181229e-12 -8.077352e-08 4.744031e-13))
960.974415    	((5.677862e-07 -2.818802e-10 -6.348883e-07) (6.999058e-07 -1.420354e-10 -2.275714e-07)) ((-1.197890e-14 2.376198e-10 -1.421022e-14) (-5.173167e-12 -8.077515e-08 5.049730e-13))
