# Forces      
# CofR        : (0.000000e+00 0.000000e+00 0.000000e+00)
# Time        forces(pressure viscous)	moments(pressure viscous)
0             	((0.000000e+00 0.000000e+00 0.000000e+00) (6.326415e-06 -3.809332e-16 6.150467e-11)) ((0.000000e+00 0.000000e+00 0.000000e+00) (-1.437187e-17 -1.421469e-07 -9.176624e-17))
0.012         	((1.839687e-03 -3.180502e-09 4.687636e-04) (7.260458e-06 -1.160471e-11 -1.655527e-09)) ((-1.437698e-13 2.711168e-08 -3.013593e-13) (-5.854713e-14 -2.095059e-07 1.721401e-13))
0.0264        	((-1.264977e-04 4.441817e-10 -2.974554e-05) (7.408920e-06 -1.713816e-11 -2.314468e-09)) ((1.996030e-14 -1.880104e-09 3.834704e-13) (3.130086e-13 -2.345921e-07 2.883193e-13))
0.04368       	((-3.852897e-04 -4.236262e-09 -4.583426e-05) (6.585181e-06 -1.971852e-11 -1.794057e-09)) ((4.787282e-13 -6.015207e-09 3.465629e-13) (5.826024e-13 -2.090009e-07 1.396429e-13))
0.064416      	((-3.629777e-06 3.621483e-09 -1.477212e-05) (5.833295e-06 1.157122e-10 -8.937610e-10)) ((-2.499161e-13 -1.490221e-11 -1.880887e-14) (2.293189e-13 -1.876093e-07 4.941496e-13))
0.0892992     	((5.229829e-06 -7.075841e-09 -8.694427e-06) (5.385836e-06 1.809685e-10 -8.192130e-10)) ((1.847178e-13 2.182106e-10 5.556943e-15) (-5.353255e-13 -1.773423e-07 3.210732e-13))
0.119159      	((-5.742256e-06 2.427027e-09 -5.302236e-06) (4.973396e-06 1.404517e-10 -1.009899e-09)) ((-1.761084e-13 -1.412199e-10 1.195889e-13) (-6.417575e-13 -1.659285e-07 -9.694044e-13))
0.154991      	((-3.103900e-06 1.715423e-09 -3.284570e-06) (4.535802e-06 1.178470e-10 -9.687738e-10)) ((1.699223e-14 -8.349156e-11 1.692317e-13) (-7.456394e-13 -1.532162e-07 -1.818878e-12))
0.197989      	((-7.551100e-07 1.654172e-09 -2.010899e-06) (4.093806e-06 8.618656e-11 -1.175751e-09)) ((-1.585094e-13 -2.873330e-11 1.078629e-13) (-8.504188e-13 -1.402728e-07 -1.750783e-12))
0.249587      	((9.795455e-08 1.548332e-09 -1.220961e-06) (3.659845e-06 5.809925e-11 -1.399651e-09)) ((-1.812121e-13 -8.235413e-12 -4.228061e-14) (-5.383401e-13 -1.273237e-07 -1.424307e-12))
0.311504      	((4.885653e-07 3.053564e-10 -7.185306e-07) (3.246912e-06 3.028450e-11 -1.602321e-09)) ((-6.334335e-14 -7.909384e-13 -1.290384e-14) (-3.820155e-13 -1.146171e-07 -9.431079e-13))
0.385805      	((6.765395e-07 1.017158e-10 -4.057988e-07) (2.865442e-06 1.319733e-11 -1.794069e-09)) ((-4.703269e-14 1.647738e-12 -1.073995e-14) (-2.762959e-13 -1.024632e-07 -4.344772e-13))
0.474966      	((7.637925e-07 -3.392940e-12 -2.089269e-07) (2.523205e-06 4.783322e-13 -1.951613e-09)) ((-2.704027e-14 3.607455e-12 -6.808211e-15) (-2.201305e-13 -9.120260e-08 -2.557944e-13))
0.581959      	((7.983464e-07 -5.426200e-11 -8.994011e-08) (2.223648e-06 -8.982262e-12 -2.094560e-09)) ((-9.760507e-15 5.242087e-12 1.225126e-15) (-1.989808e-13 -8.105100e-08 -6.965027e-14))
0.710351      	((7.950368e-07 -6.272181e-11 -1.870467e-08) (1.966974e-06 -9.239990e-12 -2.242496e-09)) ((-2.779082e-15 6.263723e-12 4.003914e-15) (-1.656272e-13 -7.212971e-08 1.449846e-13))
0.864421      	((7.663701e-07 -6.093323e-11 2.157933e-08) (1.749920e-06 -4.687569e-12 -2.378759e-09)) ((-9.727663e-16 6.602628e-12 2.115694e-15) (-1.671303e-13 -6.444021e-08 1.760074e-13))
1.049306      	((7.243129e-07 -4.914877e-11 4.350733e-08) (1.566904e-06 -1.023983e-12 -2.491841e-09)) ((-1.504212e-15 6.425660e-12 1.923154e-15) (-1.688572e-13 -5.786733e-08 1.833594e-13))
1.271167      	((6.775641e-07 -1.970568e-11 5.355799e-08) (1.412169e-06 -5.414215e-13 -2.613179e-09)) ((-6.082554e-16 6.041201e-12 1.623050e-15) (-1.357020e-13 -5.223656e-08 1.798648e-13))
1.5374        	((6.297752e-07 -1.548212e-11 5.643072e-08) (1.279592e-06 -2.406941e-14 -2.758305e-09)) ((-4.174522e-16 5.617666e-12 1.246176e-15) (-9.913324e-14 -4.735939e-08 1.506578e-13))
1.85688       	((5.831644e-07 -1.602453e-11 5.445179e-08) (1.163563e-06 1.092651e-12 -2.917834e-09)) ((2.498538e-16 5.160456e-12 1.339117e-15) (-9.445044e-14 -4.307118e-08 6.801599e-14))
2.240256      	((5.389664e-07 -1.578452e-11 4.969025e-08) (1.060415e-06 -3.478194e-13 -3.072233e-09)) ((-3.698283e-16 4.734765e-12 8.458607e-16) (-1.029826e-13 -3.925294e-08 -9.021597e-15))
2.700307      	((4.977363e-07 -2.294192e-11 4.324841e-08) (9.679027e-07 -2.441400e-12 -3.238316e-09)) ((7.171927e-16 4.366332e-12 6.279035e-16) (-1.228218e-13 -3.582513e-08 -8.711496e-14))
3.252369      	((4.592936e-07 -1.717419e-11 3.618778e-08) (8.845287e-07 -3.059103e-12 -3.429774e-09)) ((1.618665e-15 4.002401e-12 3.228180e-16) (-1.560462e-13 -3.273457e-08 -1.838739e-13))
3.914842      	((4.231806e-07 -5.569447e-12 2.900302e-08) (8.091960e-07 -2.738475e-12 -3.643186e-09)) ((2.292438e-15 3.641351e-12 6.052649e-17) (-1.859707e-13 -2.994195e-08 -2.766844e-13))
4.709811      	((3.896421e-07 8.608302e-12 2.201426e-08) (7.411146e-07 -2.193267e-12 -3.885307e-09)) ((1.632957e-15 3.306237e-12 1.161946e-16) (-1.796985e-13 -2.741764e-08 -3.504310e-13))
5.663773      	((3.586770e-07 2.411160e-11 1.539354e-08) (6.797043e-07 -1.079127e-12 -4.147443e-09)) ((1.004271e-15 3.008025e-12 3.021734e-16) (-1.293066e-13 -2.514030e-08 -3.557739e-13))
6.808528      	((3.302363e-07 1.827280e-11 9.336961e-09) (6.244636e-07 1.214573e-13 -4.416953e-09)) ((2.128269e-16 2.749257e-12 5.118090e-16) (-8.053605e-14 -2.309211e-08 -3.457508e-13))
8.182233      	((3.041847e-07 1.235399e-11 3.798019e-09) (5.748799e-07 -2.755213e-13 -4.696566e-09)) ((1.473641e-16 2.522700e-12 5.220083e-16) (-8.301294e-14 -2.125425e-08 -3.830524e-13))
9.83068       	((2.805240e-07 4.982413e-12 -1.231663e-09) (5.303489e-07 -1.528161e-12 -4.989736e-09)) ((5.430978e-16 2.318833e-12 5.042018e-16) (-1.087044e-13 -1.960427e-08 -4.555221e-13))
11.808816     	((2.589001e-07 -1.666708e-12 -5.795553e-09) (4.902197e-07 -3.376813e-12 -5.300160e-09)) ((4.987466e-16 2.130774e-12 5.355109e-16) (-1.023918e-13 -1.811773e-08 -6.480871e-13))
14.182579     	((2.391579e-07 -1.373803e-11 -9.930556e-09) (4.538943e-07 -5.935991e-12 -5.636254e-09)) ((4.859456e-17 1.959660e-12 4.590347e-16) (-1.042174e-13 -1.677196e-08 -9.727686e-13))
17.031095     	((2.211485e-07 -1.131799e-11 -1.365528e-08) (4.208770e-07 -8.267720e-12 -6.002332e-09)) ((-8.141765e-16 1.806730e-12 2.567871e-17) (-1.073516e-13 -1.554858e-08 -1.382382e-12))
20.449314     	((2.047333e-07 -1.778994e-11 -1.708262e-08) (3.907973e-07 -1.068121e-11 -6.399849e-09)) ((-3.691156e-16 1.669735e-12 -2.411979e-16) (-1.281071e-13 -1.443374e-08 -1.850591e-12))
24.551176     	((1.897166e-07 -1.370377e-11 -2.010101e-08) (3.633826e-07 -1.139179e-11 -6.828116e-09)) ((9.010582e-16 1.544950e-12 -6.930453e-16) (-2.027421e-13 -1.341716e-08 -2.283102e-12))
29.473411     	((1.760441e-07 -1.031560e-11 -2.273576e-08) (3.384214e-07 -1.040232e-11 -7.279427e-09)) ((2.300797e-15 1.434249e-12 -9.371469e-16) (-2.853236e-13 -1.249132e-08 -2.672599e-12))
35.380094     	((1.636230e-07 -1.546673e-11 -2.505584e-08) (3.157392e-07 -9.364466e-12 -7.751209e-09)) ((3.078816e-15 1.336104e-12 -8.033280e-16) (-3.393376e-13 -1.164989e-08 -3.139802e-12))
42.468112     	((1.524162e-07 -1.395325e-11 -2.701613e-08) (2.951621e-07 -8.204872e-12 -8.242215e-09)) ((3.259967e-15 1.247524e-12 -7.107189e-16) (-3.543988e-13 -1.088646e-08 -3.749014e-12))
50.973735     	((1.423191e-07 -7.591576e-12 -2.871959e-08) (2.765095e-07 -6.228548e-12 -8.743503e-09)) ((3.998531e-15 1.168196e-12 -6.941220e-16) (-3.659071e-13 -1.019449e-08 -4.523166e-12))
61.180482     	((1.332416e-07 -3.272498e-13 -3.014786e-08) (2.596013e-07 -5.946289e-12 -9.248810e-09)) ((4.045206e-15 1.098444e-12 -5.996371e-16) (-3.505683e-13 -9.567495e-09 -5.489802e-12))
73.428578     	((1.250946e-07 8.239980e-12 -3.134721e-08) (2.442691e-07 -6.555540e-12 -9.765215e-09)) ((3.832438e-15 1.037328e-12 -4.434142e-16) (-2.672332e-13 -8.999072e-09 -6.642625e-12))
88.126294     	((1.178345e-07 2.260331e-11 -3.232598e-08) (2.303537e-07 -5.996937e-12 -1.029415e-08)) ((3.189327e-15 9.852628e-13 -5.219782e-16) (-1.268065e-13 -8.483305e-09 -7.920602e-12))
105.763553    	((1.113691e-07 3.447470e-11 -3.313842e-08) (2.177208e-07 -7.480762e-12 -1.083649e-08)) ((2.606986e-15 9.398153e-13 -6.528227e-16) (4.022402e-14 -8.015142e-09 -9.205044e-12))
126.928263    	((1.056930e-07 4.337819e-11 -3.376665e-08) (2.062589e-07 -8.975594e-12 -1.139545e-08)) ((2.031251e-15 9.013263e-13 -7.844405e-16) (2.046556e-13 -7.590415e-09 -1.043271e-11))
152.325916    	((1.007483e-07 5.287816e-11 -3.424589e-08) (1.958750e-07 -1.058712e-11 -1.197075e-08)) ((1.383116e-15 8.700928e-13 -8.537411e-16) (3.743404e-13 -7.205824e-09 -1.158569e-11))
182.803099    	((9.646207e-08 5.879238e-11 -3.459509e-08) (1.864924e-07 -1.271508e-11 -1.256215e-08)) ((9.436976e-16 8.453623e-13 -8.592586e-16) (5.280619e-13 -6.858635e-09 -1.261605e-11))
219.375719    	((9.277062e-08 6.758831e-11 -3.483262e-08) (1.780410e-07 -1.443035e-11 -1.316909e-08)) ((5.896872e-16 8.269446e-13 -8.409961e-16) (6.887836e-13 -6.546411e-09 -1.349914e-11))
263.262863    	((8.964406e-08 7.643132e-11 -3.498135e-08) (1.704602e-07 -1.526186e-11 -1.379242e-08)) ((2.313090e-16 8.149353e-13 -7.962448e-16) (8.677494e-13 -6.267067e-09 -1.422435e-11))
315.927436    	((8.706716e-08 8.033893e-11 -3.504425e-08) (1.636996e-07 -1.540303e-11 -1.443063e-08)) ((1.195738e-17 8.083467e-13 -7.771547e-16) (1.044048e-12 -6.018742e-09 -1.477540e-11))
379.124923    	((8.499773e-08 8.280477e-11 -3.502593e-08) (1.577132e-07 -1.572829e-11 -1.508056e-08)) ((-9.602001e-17 8.069758e-13 -7.280483e-16) (1.209380e-12 -5.799750e-09 -1.514222e-11))
454.961908    	((8.339536e-08 8.641732e-11 -3.494293e-08) (1.524581e-07 -1.531562e-11 -1.573880e-08)) ((-1.792695e-16 8.093622e-13 -7.413279e-16) (1.368880e-12 -5.608435e-09 -1.534258e-11))
545.966289    	((8.219911e-08 9.050088e-11 -3.480026e-08) (1.478903e-07 -1.384640e-11 -1.639706e-08)) ((-1.895015e-16 8.143794e-13 -8.207158e-16) (1.525758e-12 -5.442941e-09 -1.540487e-11))
655.171547    	((8.133100e-08 9.299823e-11 -3.460630e-08) (1.439623e-07 -1.170957e-11 -1.704229e-08)) ((-1.020154e-16 8.206506e-13 -8.013901e-16) (1.680222e-12 -5.301255e-09 -1.532864e-11))
786.217856    	((8.071053e-08 9.508428e-11 -3.436187e-08) (1.406181e-07 -8.979125e-12 -1.765937e-08)) ((-1.700397e-16 8.270764e-13 -8.186566e-16) (1.838465e-12 -5.181075e-09 -1.511558e-11))
943.473427    	((8.026333e-08 9.724237e-11 -3.407222e-08) (1.377966e-07 -5.711874e-12 -1.823307e-08)) ((-2.006950e-16 8.329402e-13 -8.922092e-16) (2.000118e-12 -5.079967e-09 -1.477459e-11))
1130.103871   	((7.993693e-08 9.846761e-11 -3.375885e-08) (1.354353e-07 -1.991097e-12 -1.875164e-08)) ((-1.450311e-16 8.378978e-13 -9.073838e-16) (2.152616e-12 -4.995556e-09 -1.431244e-11))
1346.169239   	((7.968622e-08 9.843485e-11 -3.345734e-08) (1.334718e-07 2.023974e-12 -1.920883e-08)) ((-1.969628e-17 8.416142e-13 -9.104642e-16) (2.282662e-12 -4.925557e-09 -1.375728e-11))
1591.721446   	((7.948034e-08 9.706698e-11 -3.319792e-08) (1.318445e-07 5.951105e-12 -1.960498e-08)) ((9.454049e-17 8.438239e-13 -8.698690e-16) (2.377456e-12 -4.867763e-09 -1.313768e-11))
1866.807119   	((7.930821e-08 9.452790e-11 -3.298854e-08) (1.304983e-07 9.675149e-12 -1.994450e-08)) ((1.787446e-16 8.447403e-13 -8.262549e-16) (2.440079e-12 -4.820214e-09 -1.247761e-11))
2162.562756   	((7.916797e-08 9.109395e-11 -3.284878e-08) (1.293872e-07 1.312540e-11 -2.023344e-08)) ((3.253639e-16 8.445846e-13 -7.931521e-16) (2.471586e-12 -4.781262e-09 -1.179519e-11))
2458.694754   	((7.905678e-08 8.678094e-11 -3.277486e-08) (1.284722e-07 1.625077e-11 -2.047831e-08)) ((5.440809e-16 8.437419e-13 -7.595656e-16) (2.469789e-12 -4.749494e-09 -1.110431e-11))
2755.1587     	((7.896026e-08 8.290464e-11 -3.272033e-08) (1.277166e-07 1.893155e-11 -2.068600e-08)) ((7.428716e-16 8.425008e-13 -7.287995e-16) (2.440427e-12 -4.723565e-09 -1.042309e-11))
3051.914945   	((7.888002e-08 7.883797e-11 -3.267409e-08) (1.270930e-07 2.120479e-11 -2.086214e-08)) ((9.052781e-16 8.411528e-13 -6.930889e-16) (2.389924e-12 -4.702436e-09 -9.764344e-12))
3348.92716    	((7.881117e-08 7.463289e-11 -3.262275e-08) (1.265766e-07 2.307893e-11 -2.101202e-08)) ((1.029436e-15 8.398160e-13 -6.610121e-16) (2.323473e-12 -4.685178e-09 -9.135341e-12))
3646.162878   	((7.875393e-08 7.034916e-11 -3.256632e-08) (1.261487e-07 2.459734e-11 -2.113962e-08)) ((1.138288e-15 8.386195e-13 -6.326216e-16) (2.244671e-12 -4.671076e-09 -8.540773e-12))
3943.592974   	((7.870551e-08 6.607207e-11 -3.250229e-08) (1.257929e-07 2.574435e-11 -2.124856e-08)) ((1.249727e-15 8.375598e-13 -6.002497e-16) (2.155127e-12 -4.659516e-09 -7.982701e-12))
4241.162877   	((7.866491e-08 6.191169e-11 -3.243407e-08) (1.254966e-07 2.652163e-11 -2.134167e-08)) ((1.360441e-15 8.366413e-13 -5.694168e-16) (2.056673e-12 -4.650024e-09 -7.461806e-12))
4538.842902   	((7.863045e-08 5.802905e-11 -3.236036e-08) (1.252493e-07 2.699914e-11 -2.142141e-08)) ((1.460144e-15 8.358685e-13 -5.373948e-16) (1.952923e-12 -4.642204e-09 -6.978596e-12))
4836.617413   	((7.860141e-08 5.423815e-11 -3.228503e-08) (1.250426e-07 2.722213e-11 -2.148976e-08)) ((1.552113e-15 8.352238e-13 -5.095853e-16) (1.846029e-12 -4.635749e-09 -6.533416e-12))
5134.472924   	((7.857703e-08 5.049948e-11 -3.221011e-08) (1.248694e-07 2.722326e-11 -2.154839e-08)) ((1.638481e-15 8.347120e-13 -4.845772e-16) (1.737011e-12 -4.630405e-09 -6.124323e-12))
5432.39786    	((7.855645e-08 4.694563e-11 -3.213779e-08) (1.247241e-07 2.706836e-11 -2.159871e-08)) ((1.725211e-15 8.342689e-13 -4.626643e-16) (1.627510e-12 -4.625971e-09 -5.748504e-12))
5730.382286   	((7.853893e-08 4.362616e-11 -3.207074e-08) (1.246020e-07 2.677561e-11 -2.164192e-08)) ((1.797946e-15 8.338818e-13 -4.404624e-16) (1.519621e-12 -4.622281e-09 -5.405580e-12))
6028.417715   	((7.852428e-08 4.056247e-11 -3.200762e-08) (1.244992e-07 2.637188e-11 -2.167899e-08)) ((1.862425e-15 8.335769e-13 -4.176518e-16) (1.414881e-12 -4.619206e-09 -5.094432e-12))
6326.496884   	((7.851188e-08 3.763569e-11 -3.194940e-08) (1.244125e-07 2.588416e-11 -2.171078e-08)) ((1.924671e-15 8.333309e-13 -3.989985e-16) (1.314097e-12 -4.616637e-09 -4.812610e-12))
6624.613577   	((7.850136e-08 3.495969e-11 -3.189600e-08) (1.243394e-07 2.534366e-11 -2.173805e-08)) ((1.980618e-15 8.331330e-13 -3.823947e-16) (1.217966e-12 -4.614487e-09 -4.557786e-12))
6922.762472   	((7.849248e-08 3.256470e-11 -3.184738e-08) (1.242777e-07 2.477577e-11 -2.176141e-08)) ((2.028297e-15 8.329743e-13 -3.670654e-16) (1.127365e-12 -4.612683e-09 -4.327992e-12))
7220.939006   	((7.848496e-08 3.041056e-11 -3.180438e-08) (1.242255e-07 2.419288e-11 -2.178143e-08)) ((2.073260e-15 8.328447e-13 -3.543241e-16) (1.042552e-12 -4.611168e-09 -4.121461e-12))
7519.13927    	((7.847839e-08 2.844293e-11 -3.176568e-08) (1.241813e-07 2.360883e-11 -2.179856e-08)) ((2.113335e-15 8.327376e-13 -3.431926e-16) (9.635371e-13 -4.609894e-09 -3.936091e-12))
7817.359902   	((7.847297e-08 2.657426e-11 -3.173155e-08) (1.241439e-07 2.302975e-11 -2.181321e-08)) ((2.150104e-15 8.326511e-13 -3.324853e-16) (8.902547e-13 -4.608821e-09 -3.770060e-12))
8115.598019   	((7.846844e-08 2.490569e-11 -3.170398e-08) (1.241122e-07 2.246868e-11 -2.182575e-08)) ((2.182842e-15 8.325721e-13 -3.230243e-16) (8.226945e-13 -4.607917e-09 -3.621682e-12))
8413.851151   	((7.846445e-08 2.349493e-11 -3.167657e-08) (1.240854e-07 2.192753e-11 -2.183646e-08)) ((2.210977e-15 8.325158e-13 -3.145348e-16) (7.605905e-13 -4.607153e-09 -3.489537e-12))
8712.117181   	((7.846112e-08 2.211580e-11 -3.165401e-08) (1.240626e-07 2.140997e-11 -2.184561e-08)) ((2.237838e-15 8.324650e-13 -3.064916e-16) (7.036110e-13 -4.606507e-09 -3.371929e-12))
9010.39429    	((7.845828e-08 2.095367e-11 -3.163235e-08) (1.240432e-07 2.092368e-11 -2.185343e-08)) ((2.260811e-15 8.324304e-13 -2.995381e-16) (6.516303e-13 -4.605960e-09 -3.267306e-12))
9308.680917   	((7.845587e-08 1.983397e-11 -3.161509e-08) (1.240268e-07 2.046493e-11 -2.186011e-08)) ((2.282778e-15 8.323972e-13 -2.935649e-16) (6.042068e-13 -4.605497e-09 -3.174472e-12))
9606.975725   	((7.845386e-08 1.888272e-11 -3.160030e-08) (1.240128e-07 2.003906e-11 -2.186581e-08)) ((2.302529e-15 8.323669e-13 -2.882638e-16) (5.611827e-13 -4.605105e-09 -3.092195e-12))
9905.277562   	((7.845207e-08 1.799781e-11 -3.158642e-08) (1.240010e-07 1.964430e-11 -2.187068e-08)) ((2.320733e-15 8.323431e-13 -2.836441e-16) (5.221744e-13 -4.604772e-09 -3.019323e-12))
10203.585443  	((7.845058e-08 1.723967e-11 -3.157482e-08) (1.239909e-07 1.928123e-11 -2.187483e-08)) ((2.336424e-15 8.323234e-13 -2.795808e-16) (4.870050e-13 -4.604490e-09 -2.954928e-12))
10501.898516  	((7.844932e-08 1.657645e-11 -3.156456e-08) (1.239823e-07 1.894885e-11 -2.187838e-08)) ((2.350407e-15 8.323075e-13 -2.759566e-16) (4.553653e-13 -4.604250e-09 -2.898059e-12))
10800.216053  	((7.844822e-08 1.597165e-11 -3.155618e-08) (1.239750e-07 1.864574e-11 -2.188141e-08)) ((2.362788e-15 8.322918e-13 -2.728644e-16) (4.269927e-13 -4.604046e-09 -2.847923e-12))
11098.537427  	((7.844720e-08 1.543513e-11 -3.154857e-08) (1.239688e-07 1.837008e-11 -2.188399e-08)) ((2.373894e-15 8.322781e-13 -2.700797e-16) (4.016016e-13 -4.603872e-09 -2.803765e-12))
11396.8621    	((7.844642e-08 1.497585e-11 -3.154185e-08) (1.239635e-07 1.812112e-11 -2.188618e-08)) ((2.383574e-15 8.322696e-13 -2.676107e-16) (3.789526e-13 -4.603725e-09 -2.764916e-12))
