# Forces      
# CofR        : (0.000000e+00 0.000000e+00 0.000000e+00)
# Time        forces(pressure viscous)	moments(pressure viscous)
0             	((0.000000e+00 0.000000e+00 0.000000e+00) (1.589045e-02 4.240441e-13 1.531163e-07)) ((0.000000e+00 0.000000e+00 0.000000e+00) (2.256494e-14 -3.570382e-04 2.372199e-13))
0.0119198     	((4.723593e+00 1.167352e-04 7.249762e-01) (2.822311e-02 -9.460781e-07 -2.750381e-03)) ((-6.219259e-09 6.811738e-05 -4.377272e-10) (-3.258591e-08 -8.989768e-04 9.258096e-09))
0.0262235     	((-1.866476e+00 -2.957135e-04 -1.008213e+00) (2.684533e-02 -1.176613e-06 -3.997975e-03)) ((-3.888914e-09 -2.902511e-05 -8.100739e-09) (-3.769221e-08 -9.540861e-04 5.561545e-08))
0.043388      	((1.494766e-01 2.017734e-04 -5.293159e-01) (2.177421e-02 -5.840665e-07 -3.304671e-03)) ((1.603813e-08 -1.891062e-06 1.310326e-09) (-2.219662e-08 -7.796972e-04 2.850207e-08))
0.0639854     	((-9.471921e-02 -2.016364e-04 -5.041674e-01) (1.959332e-02 -8.831016e-07 -3.087929e-03)) ((1.397024e-08 -2.540575e-06 -1.366691e-08) (-3.817813e-08 -7.012374e-04 -9.789468e-09))
0.0887023     	((6.368581e-02 -1.102172e-05 -4.547198e-01) (1.817294e-02 -3.972526e-07 -2.990004e-03)) ((1.218864e-08 -1.108900e-06 -9.784278e-09) (-5.662117e-08 -6.495886e-04 1.718492e-09))
0.118363      	((4.923770e-03 3.037079e-05 -4.638974e-01) (1.737275e-02 7.992439e-07 -2.967843e-03)) ((3.023668e-09 -1.160544e-06 -2.567226e-09) (-4.499597e-08 -6.232439e-04 -6.868489e-09))
0.153278      	((3.063518e-02 3.896974e-05 -4.497101e-01) (1.681201e-02 5.576971e-07 -3.107990e-03)) ((-1.749215e-09 -7.475540e-07 -6.109687e-10) (-3.958590e-08 -6.024889e-04 3.410291e-09))
0.193399      	((2.278244e-02 1.761261e-05 -4.547000e-01) (1.639701e-02 8.101712e-07 -3.301005e-03)) ((1.530498e-09 -4.539050e-07 -1.097500e-09) (-3.760962e-08 -5.862611e-04 -6.313983e-09))
0.238721      	((3.101044e-02 1.157396e-05 -4.484039e-01) (1.608343e-02 5.265500e-07 -3.485909e-03)) ((-1.591856e-09 -1.340479e-07 -1.050506e-09) (-3.305287e-08 -5.734156e-04 -2.950291e-08))
0.289244      	((3.249429e-02 -1.368512e-05 -4.497338e-01) (1.585885e-02 -1.106013e-07 -3.676240e-03)) ((-2.285800e-09 1.633031e-07 -1.439142e-09) (-3.677141e-08 -5.640193e-04 -3.481420e-08))
0.341299      	((3.784335e-02 -2.126203e-06 -4.462567e-01) (1.571099e-02 3.063551e-07 -3.845297e-03)) ((1.420881e-09 3.918230e-07 -1.592709e-09) (-3.897535e-08 -5.572541e-04 -5.184430e-08))
0.393238      	((4.117679e-02 -3.325517e-05 -4.451969e-01) (1.560724e-02 -2.229734e-07 -3.981549e-03)) ((3.127453e-10 6.148020e-07 2.871160e-10) (-3.986925e-08 -5.518553e-04 -6.525896e-08))
0.444867      	((4.552079e-02 -6.709892e-05 -4.414318e-01) (1.551529e-02 -8.422704e-07 -4.082364e-03)) ((3.123701e-09 8.020402e-07 9.593581e-10) (-4.616070e-08 -5.466835e-04 -6.076296e-08))
0.496204      	((4.871818e-02 -6.046502e-05 -4.383816e-01) (1.541258e-02 -6.267927e-07 -4.157261e-03)) ((1.799267e-09 9.905434e-07 1.351949e-09) (-4.709818e-08 -5.412404e-04 -5.819865e-08))
0.54737       	((5.159537e-02 -7.325986e-05 -4.340267e-01) (1.528886e-02 -8.863758e-07 -4.210265e-03)) ((9.037102e-10 1.186107e-06 6.136908e-10) (-4.542778e-08 -5.355546e-04 -5.786380e-08))
0.59848       	((5.329803e-02 -7.870388e-05 -4.299378e-01) (1.515431e-02 -1.083168e-06 -4.251301e-03)) ((3.818684e-09 1.365386e-06 -6.422834e-10) (-4.897634e-08 -5.301056e-04 -6.238663e-08))
0.649705      	((5.440790e-02 -8.727005e-05 -4.254821e-01) (1.502382e-02 -1.321640e-06 -4.281441e-03)) ((2.717312e-09 1.519178e-06 -1.088850e-09) (-5.606111e-08 -5.252936e-04 -7.618778e-08))
0.701123      	((5.491344e-02 -1.072331e-04 -4.216358e-01) (1.490671e-02 -1.842233e-06 -4.303441e-03)) ((3.804870e-09 1.644060e-06 -1.003590e-09) (-6.787828e-08 -5.211961e-04 -8.848258e-08))
0.752713      	((5.475101e-02 -1.271687e-04 -4.179236e-01) (1.480263e-02 -2.088503e-06 -4.320120e-03)) ((5.721902e-09 1.728014e-06 -1.362102e-09) (-8.126965e-08 -5.176356e-04 -9.115344e-08))
0.804322      	((5.413659e-02 -1.315366e-04 -4.147052e-01) (1.470713e-02 -2.114108e-06 -4.333615e-03)) ((3.300482e-09 1.787142e-06 -1.988915e-09) (-8.697931e-08 -5.144141e-04 -9.016260e-08))
0.855961      	((5.330866e-02 -1.492718e-04 -4.117695e-01) (1.461872e-02 -2.204752e-06 -4.346272e-03)) ((3.146325e-09 1.820539e-06 -2.161205e-09) (-9.001234e-08 -5.114162e-04 -8.755964e-08))
0.907644      	((5.248585e-02 -1.576749e-04 -4.092323e-01) (1.453887e-02 -2.406033e-06 -4.359361e-03)) ((5.709724e-09 1.839974e-06 -1.966774e-09) (-9.739231e-08 -5.086315e-04 -8.590752e-08))
0.959371      	((5.196613e-02 -1.834507e-04 -4.070109e-01) (1.446747e-02 -2.744362e-06 -4.372095e-03)) ((6.808171e-09 1.847846e-06 -1.644672e-09) (-1.051851e-07 -5.060811e-04 -8.496056e-08))
1.011133      	((5.158423e-02 -2.088432e-04 -4.049056e-01) (1.440320e-02 -3.054743e-06 -4.383130e-03)) ((7.693447e-09 1.854592e-06 -1.016756e-09) (-1.117221e-07 -5.037912e-04 -8.283654e-08))
1.062926      	((5.137100e-02 -2.450302e-04 -4.029352e-01) (1.434505e-02 -3.248080e-06 -4.391669e-03)) ((8.300989e-09 1.863060e-06 -6.059071e-10) (-1.191063e-07 -5.017763e-04 -7.614079e-08))
1.11475       	((5.106344e-02 -2.756699e-04 -4.009540e-01) (1.429191e-02 -3.310116e-06 -4.398519e-03)) ((8.354741e-09 1.869223e-06 -3.971814e-10) (-1.267130e-07 -4.999863e-04 -5.949807e-08))
1.166602      	((5.076766e-02 -3.101639e-04 -3.991477e-01) (1.424280e-02 -3.270538e-06 -4.404794e-03)) ((7.615814e-09 1.873713e-06 -3.098259e-10) (-1.358416e-07 -4.983403e-04 -3.699823e-08))
1.218482      	((5.042532e-02 -3.535884e-04 -3.974528e-01) (1.419707e-02 -3.327705e-06 -4.411207e-03)) ((7.090121e-09 1.876116e-06 -4.101720e-10) (-1.474900e-07 -4.967837e-04 -1.449824e-08))
1.270386      	((5.012850e-02 -4.056881e-04 -3.959011e-01) (1.415453e-02 -3.565248e-06 -4.417638e-03)) ((6.912585e-09 1.877495e-06 -1.019275e-09) (-1.620721e-07 -4.953167e-04 8.079944e-09))
1.322314      	((4.983716e-02 -4.695741e-04 -3.944682e-01) (1.411528e-02 -3.848509e-06 -4.423792e-03)) ((6.591821e-09 1.879153e-06 -1.236159e-09) (-1.791609e-07 -4.939579e-04 3.416104e-08))
1.374264      	((4.953710e-02 -5.446998e-04 -3.931392e-01) (1.407904e-02 -4.119097e-06 -4.429555e-03)) ((6.087548e-09 1.879561e-06 -1.841188e-09) (-1.977867e-07 -4.927055e-04 6.530715e-08))
1.426235      	((4.926234e-02 -6.274083e-04 -3.919363e-01) (1.404562e-02 -4.352265e-06 -4.434613e-03)) ((5.556432e-09 1.881665e-06 -2.514253e-09) (-2.186908e-07 -4.915663e-04 1.004208e-07))
1.478225      	((4.896593e-02 -7.146619e-04 -3.908237e-01) (1.401494e-02 -4.573146e-06 -4.438708e-03)) ((5.732342e-09 1.883328e-06 -3.293920e-09) (-2.415422e-07 -4.905466e-04 1.397727e-07))
1.530233      	((4.870185e-02 -8.152406e-04 -3.898148e-01) (1.398691e-02 -4.894445e-06 -4.441727e-03)) ((6.830171e-09 1.885509e-06 -3.598581e-09) (-2.672514e-07 -4.896436e-04 1.841822e-07))
1.582258      	((4.848046e-02 -9.339264e-04 -3.888886e-01) (1.396153e-02 -5.316194e-06 -4.443652e-03)) ((8.042265e-09 1.887363e-06 -3.979683e-09) (-2.980834e-07 -4.888568e-04 2.368851e-07))
1.634297      	((4.828903e-02 -1.076935e-03 -3.879904e-01) (1.393854e-02 -5.919573e-06 -4.444759e-03)) ((9.451343e-09 1.888751e-06 -4.583525e-09) (-3.344291e-07 -4.881713e-04 2.955246e-07))
1.686349      	((4.812354e-02 -1.242251e-03 -3.871422e-01) (1.391756e-02 -6.763472e-06 -4.445640e-03)) ((1.125654e-08 1.887543e-06 -5.358145e-09) (-3.781242e-07 -4.875545e-04 3.534508e-07))
1.738414      	((4.799035e-02 -1.419451e-03 -3.863698e-01) (1.389806e-02 -7.607443e-06 -4.446917e-03)) ((1.332029e-08 1.885224e-06 -5.941493e-09) (-4.276884e-07 -4.869700e-04 4.258846e-07))
1.790489      	((4.786292e-02 -1.624770e-03 -3.856710e-01) (1.387959e-02 -8.462740e-06 -4.448723e-03)) ((1.535003e-08 1.882523e-06 -6.546106e-09) (-4.823106e-07 -4.864054e-04 5.137972e-07))
1.842575      	((4.772812e-02 -1.854720e-03 -3.850268e-01) (1.386194e-02 -9.443509e-06 -4.450866e-03)) ((1.746341e-08 1.880237e-06 -7.082524e-09) (-5.480111e-07 -4.858638e-04 6.103483e-07))
1.89467       	((4.760433e-02 -2.107872e-03 -3.844451e-01) (1.384518e-02 -1.063639e-05 -4.453221e-03)) ((1.975815e-08 1.878416e-06 -7.479128e-09) (-6.258451e-07 -4.853479e-04 7.090427e-07))
1.946774      	((4.751084e-02 -2.389461e-03 -3.838992e-01) (1.382934e-02 -1.207686e-05 -4.455842e-03)) ((2.272005e-08 1.876279e-06 -7.713486e-09) (-7.135421e-07 -4.848523e-04 8.119272e-07))
1.998884      	((4.743676e-02 -2.700574e-03 -3.833722e-01) (1.381434e-02 -1.362450e-05 -4.458676e-03)) ((2.633355e-08 1.874057e-06 -7.943237e-09) (-8.091619e-07 -4.843716e-04 9.279464e-07))
2.051001      	((4.737995e-02 -3.064848e-03 -3.828655e-01) (1.379998e-02 -1.534615e-05 -4.461673e-03)) ((3.056257e-08 1.871647e-06 -8.107372e-09) (-9.137997e-07 -4.839016e-04 1.057758e-06))
2.103124      	((4.734086e-02 -3.483160e-03 -3.823711e-01) (1.378631e-02 -1.756620e-05 -4.464655e-03)) ((3.562574e-08 1.869262e-06 -8.605967e-09) (-1.033758e-06 -4.834469e-04 1.196688e-06))
2.155251      	((4.731777e-02 -3.954127e-03 -3.818932e-01) (1.377321e-02 -2.035798e-05 -4.467595e-03)) ((4.156719e-08 1.867157e-06 -9.739655e-09) (-1.173322e-06 -4.830044e-04 1.346847e-06))
2.207381      	((4.729851e-02 -4.478946e-03 -3.814248e-01) (1.376042e-02 -2.355462e-05 -4.470510e-03)) ((4.795611e-08 1.865389e-06 -1.132116e-08) (-1.334597e-06 -4.825698e-04 1.521066e-06))
2.259514      	((4.729155e-02 -5.058570e-03 -3.809789e-01) (1.374807e-02 -2.700629e-05 -4.473214e-03)) ((5.457530e-08 1.864501e-06 -1.333175e-08) (-1.516299e-06 -4.821524e-04 1.725045e-06))
2.311648      	((4.729144e-02 -5.705198e-03 -3.805491e-01) (1.373642e-02 -3.051003e-05 -4.475445e-03)) ((6.168593e-08 1.864270e-06 -1.557862e-08) (-1.715264e-06 -4.817669e-04 1.963726e-06))
2.363782      	((4.729312e-02 -6.431596e-03 -3.801330e-01) (1.372559e-02 -3.421444e-05 -4.477067e-03)) ((6.940542e-08 1.865201e-06 -1.793156e-08) (-1.934114e-06 -4.814205e-04 2.233659e-06))
2.415915      	((4.730192e-02 -7.239757e-03 -3.797364e-01) (1.371563e-02 -3.844989e-05 -4.478085e-03)) ((7.797676e-08 1.867334e-06 -2.000552e-08) (-2.178359e-06 -4.811150e-04 2.526857e-06))
2.468046      	((4.731593e-02 -8.151451e-03 -3.793579e-01) (1.370644e-02 -4.349738e-05 -4.478445e-03)) ((8.817878e-08 1.870356e-06 -2.191985e-08) (-2.452087e-06 -4.808499e-04 2.843403e-06))
2.520173      	((4.732882e-02 -9.192171e-03 -3.789854e-01) (1.369788e-02 -4.957060e-05 -4.478112e-03)) ((9.956904e-08 1.874223e-06 -2.419208e-08) (-2.760825e-06 -4.806240e-04 3.187972e-06))
2.572295      	((4.732944e-02 -1.036417e-02 -3.786194e-01) (1.369006e-02 -5.673329e-05 -4.477184e-03)) ((1.127683e-07 1.878588e-06 -2.714443e-08) (-3.110500e-06 -4.804342e-04 3.562311e-06))
2.62441       	((4.733393e-02 -1.167827e-02 -3.782653e-01) (1.368322e-02 -6.485613e-05 -4.475693e-03)) ((1.277975e-07 1.884188e-06 -3.064338e-08) (-3.503964e-06 -4.802820e-04 3.972504e-06))
2.676516      	((4.734230e-02 -1.316114e-02 -3.779299e-01) (1.367742e-02 -7.388457e-05 -4.473653e-03)) ((1.449181e-07 1.891218e-06 -3.444153e-08) (-3.946167e-06 -4.801675e-04 4.430028e-06))
2.728612      	((4.733882e-02 -1.483456e-02 -3.775708e-01) (1.367228e-02 -8.396498e-05 -4.471107e-03)) ((1.644363e-07 1.898852e-06 -3.874000e-08) (-4.446198e-06 -4.800812e-04 4.947963e-06))
2.780694      	((4.736974e-02 -1.671455e-02 -3.772403e-01) (1.366772e-02 -9.530850e-05 -4.468037e-03)) ((1.860616e-07 1.908791e-06 -4.335135e-08) (-5.011570e-06 -4.800230e-04 5.536666e-06))
2.832761      	((4.742970e-02 -1.884368e-02 -3.769252e-01) (1.366404e-02 -1.081235e-04 -4.464247e-03)) ((2.100003e-07 1.920422e-06 -4.862206e-08) (-5.652306e-06 -4.800093e-04 6.203704e-06))
2.884808      	((4.753913e-02 -2.123171e-02 -3.766512e-01) (1.366156e-02 -1.224648e-04 -4.459511e-03)) ((2.360741e-07 1.933965e-06 -5.475658e-08) (-6.376170e-06 -4.800571e-04 6.955021e-06))
2.936835      	((4.772247e-02 -2.393768e-02 -3.764296e-01) (1.366056e-02 -1.386102e-04 -4.453630e-03)) ((2.648312e-07 1.951071e-06 -6.179868e-08) (-7.195777e-06 -4.801813e-04 7.797711e-06))
2.988836      	((4.796896e-02 -2.697711e-02 -3.762662e-01) (1.366136e-02 -1.570421e-04 -4.446480e-03)) ((2.970954e-07 1.970248e-06 -6.854305e-08) (-8.123252e-06 -4.803977e-04 8.739306e-06))
3.040808      	((4.829693e-02 -3.041230e-02 -3.761945e-01) (1.366442e-02 -1.778862e-04 -4.438090e-03)) ((3.324969e-07 1.991511e-06 -7.530984e-08) (-9.169484e-06 -4.807206e-04 9.803003e-06))
3.092748      	((4.871083e-02 -3.427486e-02 -3.762015e-01) (1.366958e-02 -2.015592e-04 -4.428488e-03)) ((3.709708e-07 2.014906e-06 -8.265819e-08) (-1.034898e-05 -4.811553e-04 1.098251e-05))
3.14465       	((4.923459e-02 -3.853969e-02 -3.763178e-01) (1.367709e-02 -2.287439e-04 -4.417497e-03)) ((4.139238e-07 2.043083e-06 -9.085334e-08) (-1.167561e-05 -4.817248e-04 1.227398e-05))
3.19651       	((4.992730e-02 -4.326620e-02 -3.765867e-01) (1.368818e-02 -2.595727e-04 -4.404907e-03)) ((4.630092e-07 2.075631e-06 -9.945910e-08) (-1.315244e-05 -4.824648e-04 1.369565e-05))
3.248323      	((5.081360e-02 -4.846048e-02 -3.770169e-01) (1.370361e-02 -2.944610e-04 -4.390446e-03)) ((5.198808e-07 2.112033e-06 -1.087224e-07) (-1.479206e-05 -4.834137e-04 1.523261e-05))
3.300083      	((5.195487e-02 -5.415382e-02 -3.775925e-01) (1.372376e-02 -3.334815e-04 -4.373456e-03)) ((5.815620e-07 2.151596e-06 -1.193795e-07) (-1.661686e-05 -4.846244e-04 1.688794e-05))
3.351787      	((5.333087e-02 -6.030788e-02 -3.783245e-01) (1.374937e-02 -3.766214e-04 -4.353885e-03)) ((6.450384e-07 2.192905e-06 -1.314982e-07) (-1.863082e-05 -4.861300e-04 1.867001e-05))
3.403427      	((5.511963e-02 -6.679029e-02 -3.793581e-01) (1.378183e-02 -4.241286e-04 -4.331783e-03)) ((7.109528e-07 2.235137e-06 -1.433832e-07) (-2.083636e-05 -4.879660e-04 2.057700e-05))
3.454999      	((5.730265e-02 -7.357601e-02 -3.806770e-01) (1.382190e-02 -4.765295e-04 -4.307241e-03)) ((7.796259e-07 2.281943e-06 -1.512820e-07) (-2.323355e-05 -4.901436e-04 2.255271e-05))
3.506498      	((5.986792e-02 -8.052081e-02 -3.823261e-01) (1.387036e-02 -5.342173e-04 -4.280806e-03)) ((8.394064e-07 2.329943e-06 -1.537542e-07) (-2.580325e-05 -4.926772e-04 2.457408e-05))
3.557919      	((6.270331e-02 -8.745073e-02 -3.841333e-01) (1.392720e-02 -5.968102e-04 -4.253039e-03)) ((8.968814e-07 2.375271e-06 -1.528074e-07) (-2.853801e-05 -4.955372e-04 2.663630e-05))
3.609258      	((6.615030e-02 -9.402800e-02 -3.864564e-01) (1.399144e-02 -6.620425e-04 -4.223724e-03)) ((9.487098e-07 2.420754e-06 -1.527161e-07) (-3.140420e-05 -4.986989e-04 2.868820e-05))
3.660511      	((6.997403e-02 -9.982535e-02 -3.891245e-01) (1.406290e-02 -7.281911e-04 -4.193733e-03)) ((9.863813e-07 2.456497e-06 -1.559116e-07) (-3.432437e-05 -5.021347e-04 3.071661e-05))
3.711623      	((7.403714e-02 -1.045092e-01 -3.921730e-01) (1.414199e-02 -7.934761e-04 -4.163827e-03)) ((1.009471e-06 2.480444e-06 -1.656286e-07) (-3.718043e-05 -5.057905e-04 3.267843e-05))
3.762591      	((7.792159e-02 -1.077840e-01 -3.954284e-01) (1.422812e-02 -8.540638e-04 -4.133283e-03)) ((1.023448e-06 2.483148e-06 -1.789323e-07) (-3.985406e-05 -5.096078e-04 3.450021e-05))
3.813422      	((8.148331e-02 -1.093106e-01 -3.988491e-01) (1.431878e-02 -9.069018e-04 -4.101747e-03)) ((1.031715e-06 2.471269e-06 -1.897240e-07) (-4.222179e-05 -5.135447e-04 3.605245e-05))
3.864129      	((8.404369e-02 -1.088413e-01 -4.019790e-01) (1.440947e-02 -9.483824e-04 -4.070361e-03)) ((1.013405e-06 2.441111e-06 -1.961118e-07) (-4.411398e-05 -5.174579e-04 3.732600e-05))
3.914729      	((8.558545e-02 -1.061689e-01 -4.050952e-01) (1.449405e-02 -9.726138e-04 -4.040545e-03)) ((9.544272e-07 2.389254e-06 -1.955969e-07) (-4.531407e-05 -5.211135e-04 3.837487e-05))
3.965238      	((8.575781e-02 -1.014265e-01 -4.078419e-01) (1.456711e-02 -9.739125e-04 -4.013542e-03)) ((8.581742e-07 2.327641e-06 -1.938937e-07) (-4.564406e-05 -5.243147e-04 3.921126e-05))
4.01568       	((8.482459e-02 -9.472183e-02 -4.101677e-01) (1.462851e-02 -9.522879e-04 -3.989075e-03)) ((7.252042e-07 2.264485e-06 -1.839427e-07) (-4.501973e-05 -5.269973e-04 3.976224e-05))
4.066078      	((8.293041e-02 -8.679774e-02 -4.117608e-01) (1.467878e-02 -9.076939e-04 -3.967265e-03)) ((5.800219e-07 2.211337e-06 -1.501668e-07) (-4.345664e-05 -5.291543e-04 3.994250e-05))
4.116459      	((8.038701e-02 -7.849062e-02 -4.129027e-01) (1.471789e-02 -8.412963e-04 -3.949113e-03)) ((4.388594e-07 2.166012e-06 -1.044528e-07) (-4.108576e-05 -5.308386e-04 3.978332e-05))
4.166847      	((7.796908e-02 -7.052616e-02 -4.138638e-01) (1.474833e-02 -7.610255e-04 -3.933682e-03)) ((3.189730e-07 2.134801e-06 -7.303300e-08) (-3.813604e-05 -5.322334e-04 3.938516e-05))
4.217265      	((7.533381e-02 -6.392125e-02 -4.143770e-01) (1.477372e-02 -6.718430e-04 -3.920451e-03)) ((2.382206e-07 2.094029e-06 -6.389522e-08) (-3.491131e-05 -5.334797e-04 3.888166e-05))
4.267731      	((7.276270e-02 -5.914514e-02 -4.146281e-01) (1.479575e-02 -5.816083e-04 -3.909700e-03)) ((1.957003e-07 2.020625e-06 -6.738917e-08) (-3.165968e-05 -5.346521e-04 3.828848e-05))
4.318253      	((7.035589e-02 -5.654568e-02 -4.147529e-01) (1.481467e-02 -4.997380e-04 -3.902089e-03)) ((1.927319e-07 1.919990e-06 -7.337463e-08) (-2.862485e-05 -5.357485e-04 3.771896e-05))
4.368835      	((6.848418e-02 -5.580674e-02 -4.150407e-01) (1.483301e-02 -4.328067e-04 -3.897561e-03)) ((2.236856e-07 1.820817e-06 -7.210264e-08) (-2.600340e-05 -5.368013e-04 3.713432e-05))
4.419472      	((6.681699e-02 -5.649809e-02 -4.153419e-01) (1.485154e-02 -3.853667e-04 -3.900504e-03)) ((2.913652e-07 1.738925e-06 -6.060040e-08) (-2.401538e-05 -5.376657e-04 3.642151e-05))
4.470156      	((6.537778e-02 -5.784374e-02 -4.159120e-01) (1.486858e-02 -3.605754e-04 -3.916364e-03)) ((3.737949e-07 1.673969e-06 -4.998709e-08) (-2.284741e-05 -5.380919e-04 3.553591e-05))
4.520874      	((6.375004e-02 -5.943136e-02 -4.165540e-01) (1.488222e-02 -3.589362e-04 -3.949390e-03)) ((4.590791e-07 1.610907e-06 -4.438265e-08) (-2.257374e-05 -5.378222e-04 3.433736e-05))
