# Forces      
# CofR        : (0.000000e+00 0.000000e+00 0.000000e+00)
# Time        forces(pressure viscous)	moments(pressure viscous)
0             	((0.000000e+00 0.000000e+00 0.000000e+00) (-7.537069e-16 1.987504e-06 1.671024e-16)) ((0.000000e+00 0.000000e+00 0.000000e+00) (4.465713e-08 -6.539292e-18 -9.501462e-13))
0.012         	((-6.631730e-10 5.779656e-04 1.443267e-04) (-4.026862e-12 2.280970e-06 -5.479176e-10)) ((-6.816727e-09 4.915198e-10 -1.089669e-10) (6.581682e-08 3.681819e-15 -1.981555e-12))
0.0264        	((-7.681579e-09 -3.962157e-05 -9.056103e-06) (-1.165642e-11 2.327726e-06 -7.458735e-10)) ((4.757626e-10 -3.075088e-11 7.249395e-12) (7.369959e-08 1.160406e-13 -2.618520e-12))
0.04368       	((1.111460e-08 -1.211190e-04 -1.311555e-05) (-4.566502e-12 2.069040e-06 -5.693183e-10)) ((1.576122e-09 -4.495242e-11 2.924358e-11) (6.565930e-08 -2.576039e-13 -2.232916e-12))
0.064416      	((-3.184399e-09 -1.138522e-06 -4.680223e-06) (4.357773e-11 1.832819e-06 -3.519197e-10)) ((-7.735358e-12 -1.586717e-11 -1.274097e-12) (5.893534e-08 -4.349899e-13 -2.605172e-12))
0.0892992     	((8.892422e-10 1.657761e-06 -2.794752e-06) (6.314187e-11 1.692245e-06 -3.438870e-10)) ((-6.526592e-11 -9.632711e-12 -1.726142e-12) (5.570902e-08 -1.638625e-13 -2.784293e-12))
0.119159      	((3.040420e-10 -1.799935e-06 -1.696995e-06) (5.113568e-11 1.562679e-06 -3.673889e-10)) ((3.406423e-11 -5.636089e-12 3.099396e-13) (5.212252e-08 -1.447083e-13 -2.458560e-12))
0.154991      	((-6.713160e-10 -9.754051e-07 -1.048607e-06) (3.689242e-11 1.425156e-06 -3.063146e-10)) ((2.068828e-11 -3.561871e-12 2.833306e-14) (4.812663e-08 -1.228668e-13 -2.150752e-12))
0.197989      	((3.409730e-10 -2.371448e-07 -6.367729e-07) (1.746910e-11 1.286179e-06 -2.975390e-10)) ((7.194887e-12 -2.143861e-12 3.833651e-14) (4.405656e-08 -1.001428e-13 -1.140326e-12))
0.249587      	((2.881575e-10 3.075311e-08 -3.837951e-07) (6.841082e-12 1.149679e-06 -3.089548e-10)) ((1.819851e-12 -1.270051e-12 -1.239102e-13) (3.998306e-08 -1.480239e-13 -3.923786e-13))
0.311504      	((1.542124e-10 1.532460e-07 -2.201157e-07) (2.907984e-12 1.019713e-06 -3.233558e-10)) ((1.792034e-13 -7.216789e-13 -1.479696e-13) (3.598374e-08 -1.594006e-13 -3.083751e-14))
0.385805      	((1.238646e-10 2.118656e-07 -1.198054e-07) (1.001064e-12 8.995486e-07 -3.346906e-10)) ((-2.723648e-13 -3.731489e-13 -1.323140e-13) (3.215605e-08 -1.491984e-13 3.177427e-13))
0.474966      	((2.268395e-11 2.391306e-07 -5.522096e-08) (-1.655298e-12 7.916799e-07 -3.450024e-10)) ((-7.211074e-13 -1.542316e-13 -1.111426e-13) (2.860835e-08 -1.224684e-13 4.355489e-13))
0.581959      	((8.365729e-13 2.498728e-07 -1.717347e-08) (-3.583836e-12 6.972773e-07 -3.577182e-10)) ((-1.126300e-12 -2.753502e-14 -9.805343e-14) (2.541104e-08 -8.991211e-14 1.269707e-13))
0.710351      	((-2.246877e-11 2.487320e-07 6.604185e-09) (-1.188985e-12 6.164645e-07 -3.679895e-10)) ((-1.392911e-12 5.256678e-14 -8.063184e-14) (2.260381e-08 -6.431919e-14 -3.847921e-13))
0.864421      	((-2.191182e-11 2.397031e-07 1.963498e-08) (1.970595e-12 5.482161e-07 -3.736538e-10)) ((-1.503560e-12 9.582559e-14 -7.923756e-14) (2.018746e-08 -3.318280e-14 -4.933006e-13))
1.049306      	((-2.134444e-11 2.265400e-07 2.724037e-08) (3.752112e-12 4.907614e-07 -3.762905e-10)) ((-1.479680e-12 1.208202e-13 -7.644591e-14) (1.812545e-08 2.499279e-16 -7.991742e-14))
1.271167      	((-7.771189e-12 2.119329e-07 3.055415e-08) (3.680939e-12 4.422690e-07 -3.779731e-10)) ((-1.393497e-12 1.321863e-13 -7.073186e-14) (1.636184e-08 2.544287e-14 4.506598e-13))
1.5374        	((-9.787186e-12 1.970373e-07 3.183358e-08) (1.639916e-12 4.007840e-07 -3.817469e-10)) ((-1.297223e-12 1.367990e-13 -7.023199e-14) (1.483612e-08 4.225233e-14 8.075005e-13))
1.85688       	((-3.502625e-12 1.825258e-07 3.131374e-08) (6.936684e-14 3.645122e-07 -3.900951e-10)) ((-1.187712e-12 1.348915e-13 -7.033581e-14) (1.349550e-08 5.376670e-14 9.321905e-13))
2.240256      	((-4.398053e-15 1.687601e-07 3.005807e-08) (3.619226e-13 3.322701e-07 -4.019704e-10)) ((-1.090366e-12 1.301493e-13 -6.970595e-14) (1.230182e-08 6.305413e-14 8.767818e-13))
2.700307      	((-7.029729e-13 1.558848e-07 2.809968e-08) (4.737943e-13 3.033325e-07 -4.130588e-10)) ((-1.009500e-12 1.234864e-13 -6.914369e-14) (1.122966e-08 7.602046e-14 6.133767e-13))
3.252369      	((3.007193e-12 1.438584e-07 2.603167e-08) (5.088945e-13 2.772321e-07 -4.244118e-10)) ((-9.269716e-13 1.162015e-13 -6.369979e-14) (1.026216e-08 7.615151e-14 1.618622e-13))
3.914842      	((7.010728e-12 1.325559e-07 2.377740e-08) (6.578921e-13 2.536369e-07 -4.398156e-10)) ((-8.458533e-13 1.082868e-13 -5.729170e-14) (9.387325e-09 6.226514e-14 -3.397328e-13))
4.709811      	((9.973163e-12 1.220856e-07 2.162664e-08) (6.910764e-13 2.323023e-07 -4.582780e-10)) ((-7.726276e-13 1.006659e-13 -5.104191e-14) (8.596286e-09 5.222827e-14 -7.862968e-13))
5.663773      	((1.293403e-11 1.124728e-07 1.951916e-08) (1.393457e-12 2.130516e-07 -4.793337e-10)) ((-7.092523e-13 9.305773e-14 -4.630806e-14) (7.882485e-09 3.174056e-14 -1.121192e-12))
6.808528      	((1.766455e-11 1.036569e-07 1.757517e-08) (2.603886e-12 1.957354e-07 -5.020312e-10)) ((-6.539833e-13 8.625578e-14 -4.127250e-14) (7.240324e-09 -1.256545e-14 -1.341049e-12))
8.182233      	((1.854644e-11 9.556620e-08 1.574146e-08) (3.158750e-12 1.801922e-07 -5.262014e-10)) ((-6.051610e-13 7.883827e-14 -3.628519e-14) (6.663941e-09 -5.937458e-14 -1.458068e-12))
9.83068       	((1.834080e-11 8.821490e-08 1.407211e-08) (3.303855e-12 1.662296e-07 -5.514733e-10)) ((-5.596377e-13 7.242718e-14 -3.152432e-14) (6.146334e-09 -8.770111e-14 -1.504572e-12))
11.808816     	((1.483043e-11 8.147914e-08 1.251833e-08) (2.413506e-12 1.536418e-07 -5.790620e-10)) ((-5.177907e-13 6.729942e-14 -2.717150e-14) (5.679847e-09 -1.071808e-13 -1.428643e-12))
14.182579     	((4.332161e-12 7.533547e-08 1.110465e-08) (5.068850e-13 1.422434e-07 -6.104792e-10)) ((-4.803883e-13 6.225818e-14 -2.338294e-14) (5.257457e-09 -1.080300e-13 -1.257451e-12))
17.031095     	((3.018584e-12 6.973052e-08 9.800841e-09) (-1.172664e-12 1.318791e-07 -6.451870e-10)) ((-4.464829e-13 5.800201e-14 -2.017272e-14) (4.873312e-09 -1.171635e-13 -1.056274e-12))
20.449314     	((3.776641e-12 6.461669e-08 8.599585e-09) (-2.447373e-12 1.224293e-07 -6.831737e-10)) ((-4.154548e-13 5.395899e-14 -1.756192e-14) (4.522929e-09 -1.396075e-13 -8.113865e-13))
24.551176     	((7.986462e-12 5.994109e-08 7.500781e-09) (-3.382939e-12 1.138062e-07 -7.233586e-10)) ((-3.873153e-13 5.010364e-14 -1.539543e-14) (4.203067e-09 -1.574768e-13 -5.312337e-13))
29.473411     	((9.135978e-12 5.567188e-08 6.518414e-09) (-3.914686e-12 1.059452e-07 -7.652705e-10)) ((-3.623519e-13 4.636503e-14 -1.355161e-14) (3.911395e-09 -1.688836e-13 -2.360339e-13))
35.380094     	((6.008282e-12 5.177336e-08 5.611833e-09) (-4.118192e-12 9.879293e-08 -8.089244e-10)) ((-3.398556e-13 4.308466e-14 -1.201266e-14) (3.646023e-09 -1.780282e-13 6.092154e-14))
42.468112     	((7.787196e-12 4.823974e-08 4.820551e-09) (-3.996305e-12 9.229663e-08 -8.543145e-10)) ((-3.193604e-13 3.992609e-14 -1.082193e-14) (3.404998e-09 -1.970592e-13 3.744539e-13))
50.973735     	((1.357772e-11 4.502808e-08 4.110486e-09) (-3.392962e-12 8.640147e-08 -9.008917e-10)) ((-3.008148e-13 3.699879e-14 -9.808130e-15) (3.186294e-09 -2.197293e-13 7.081061e-13))
61.180482     	((1.425484e-11 4.211202e-08 3.482982e-09) (-2.742707e-12 8.105219e-08 -9.485789e-10)) ((-2.839926e-13 3.446783e-14 -8.901770e-15) (2.987876e-09 -2.382806e-13 1.055092e-12))
73.428578     	((1.471284e-11 3.946715e-08 2.915605e-09) (-2.187309e-12 7.619478e-08 -9.985937e-10)) ((-2.683428e-13 3.215517e-14 -8.148510e-15) (2.807679e-09 -2.554917e-13 1.420332e-12))
88.126294     	((1.559349e-11 3.708249e-08 2.415727e-09) (-1.596378e-12 7.177782e-08 -1.051102e-09)) ((-2.541715e-13 3.021791e-14 -7.491616e-15) (2.643767e-09 -2.818117e-13 1.798062e-12))
105.763553    	((1.655626e-11 3.493070e-08 1.971536e-09) (-1.159182e-12 6.775539e-08 -1.106271e-09)) ((-2.411078e-13 2.838695e-14 -6.900450e-15) (2.494453e-09 -3.074199e-13 2.174327e-12))
126.928263    	((1.851152e-11 3.300868e-08 1.581687e-09) (-8.618033e-13 6.408932e-08 -1.163891e-09)) ((-2.294819e-13 2.675788e-14 -6.348427e-15) (2.358331e-09 -3.335528e-13 2.539921e-12))
152.325916    	((1.888258e-11 3.128389e-08 1.239118e-09) (-8.358049e-13 6.074675e-08 -1.223971e-09)) ((-2.189860e-13 2.526489e-14 -5.854163e-15) (2.234211e-09 -3.589861e-13 2.886591e-12))
182.803099    	((1.874772e-11 2.972926e-08 9.435018e-10) (-1.050229e-12 5.769856e-08 -1.286380e-09)) ((-2.095641e-13 2.390533e-14 -5.442938e-15) (2.121060e-09 -3.785227e-13 3.202636e-12))
219.375719    	((1.721223e-11 2.832477e-08 6.875121e-10) (-1.181787e-12 5.491943e-08 -1.350982e-09)) ((-2.012558e-13 2.270879e-14 -5.125327e-15) (2.017974e-09 -3.933774e-13 3.476751e-12))
263.262863    	((1.637691e-11 2.705925e-08 4.734199e-10) (-1.253816e-12 5.238688e-08 -1.418053e-09)) ((-1.938715e-13 2.171647e-14 -4.853986e-15) (1.924139e-09 -4.038969e-13 3.706724e-12))
315.927436    	((1.515587e-11 2.593670e-08 2.958303e-10) (-1.343206e-12 5.008152e-08 -1.487375e-09)) ((-1.872042e-13 2.079528e-14 -4.643087e-15) (1.838837e-09 -4.090336e-13 3.893216e-12))
379.124923    	((1.499215e-11 2.494682e-08 1.501532e-10) (-1.409462e-12 4.798664e-08 -1.559105e-09)) ((-1.814438e-13 2.006660e-14 -4.461165e-15) (1.761446e-09 -4.105613e-13 4.036877e-12))
454.961908    	((1.517593e-11 2.406978e-08 3.486201e-11) (-1.423749e-12 4.608676e-08 -1.633277e-09)) ((-1.764296e-13 1.950346e-14 -4.300697e-15) (1.691390e-09 -4.098248e-13 4.139285e-12))
545.966289    	((1.529192e-11 2.329948e-08 -5.839760e-11) (-1.359285e-12 4.436731e-08 -1.710105e-09)) ((-1.721053e-13 1.904211e-14 -4.153600e-15) (1.628124e-09 -4.078415e-13 4.204014e-12))
655.171547    	((1.541418e-11 2.262668e-08 -1.331866e-10) (-1.267939e-12 4.281558e-08 -1.789715e-09)) ((-1.684178e-13 1.870458e-14 -4.021986e-15) (1.571169e-09 -4.055111e-13 4.231797e-12))
786.217856    	((1.512609e-11 2.204163e-08 -1.928891e-10) (-1.254056e-12 4.141994e-08 -1.872075e-09)) ((-1.652373e-13 1.849129e-14 -3.920942e-15) (1.520090e-09 -4.034169e-13 4.226080e-12))
943.473427    	((1.474935e-11 2.153602e-08 -2.404790e-10) (-1.177591e-12 4.017009e-08 -1.956827e-09)) ((-1.625193e-13 1.836155e-14 -3.843390e-15) (1.474484e-09 -4.026860e-13 4.186752e-12))
1132.180113   	((1.444560e-11 2.110019e-08 -2.802746e-10) (-1.012495e-12 3.905602e-08 -2.043284e-09)) ((-1.601829e-13 1.832267e-14 -3.792568e-15) (1.433968e-09 -4.037144e-13 4.117805e-12))
1358.628135   	((1.387013e-11 2.072711e-08 -3.157308e-10) (-7.238208e-13 3.806807e-08 -2.130334e-09)) ((-1.581338e-13 1.832631e-14 -3.741074e-15) (1.398168e-09 -4.073356e-13 4.023023e-12))
1630.365763   	((1.327117e-11 2.040806e-08 -3.498434e-10) (-3.722523e-13 3.719654e-08 -2.216726e-09)) ((-1.562749e-13 1.837922e-14 -3.693225e-15) (1.366709e-09 -4.119969e-13 3.904441e-12))
1956.450915   	((1.279446e-11 2.013566e-08 -3.831440e-10) (4.944467e-14 3.643182e-08 -2.301257e-09)) ((-1.545668e-13 1.845169e-14 -3.653330e-15) (1.339218e-09 -4.169978e-13 3.765534e-12))
2347.753098   	((1.227524e-11 1.990384e-08 -4.210103e-10) (5.078563e-13 3.576421e-08 -2.382794e-09)) ((-1.529879e-13 1.851497e-14 -3.609550e-15) (1.315321e-09 -4.210907e-13 3.609506e-12))
2817.315718   	((1.172831e-11 1.970641e-08 -4.608870e-10) (9.585767e-13 3.518409e-08 -2.460220e-09)) ((-1.515012e-13 1.858349e-14 -3.566336e-15) (1.294651e-09 -4.229724e-13 3.439950e-12))
3380.790861   	((1.115910e-11 1.953853e-08 -5.010855e-10) (1.399601e-12 3.468204e-08 -2.532757e-09)) ((-1.500903e-13 1.864887e-14 -3.535899e-15) (1.276848e-09 -4.235554e-13 3.261446e-12))
4056.961033   	((1.073194e-11 1.939600e-08 -5.433070e-10) (1.781994e-12 3.424903e-08 -2.599947e-09)) ((-1.487567e-13 1.868582e-14 -3.516640e-15) (1.261576e-09 -4.226516e-13 3.076604e-12))
4857.95868    	((1.046105e-11 1.927527e-08 -5.852090e-10) (2.152972e-12 3.387681e-08 -2.661499e-09)) ((-1.475058e-13 1.871618e-14 -3.506120e-15) (1.248521e-09 -4.203921e-13 2.888415e-12))
5784.329033   	((1.031362e-11 1.917319e-08 -6.258341e-10) (2.511870e-12 3.355762e-08 -2.717404e-09)) ((-1.463486e-13 1.875150e-14 -3.500838e-15) (1.237393e-09 -4.160701e-13 2.700739e-12))
6836.536517   	((1.012588e-11 1.908678e-08 -6.637982e-10) (2.823952e-12 3.328436e-08 -2.767806e-09)) ((-1.452742e-13 1.879188e-14 -3.500493e-15) (1.227927e-09 -4.102894e-13 2.515905e-12))
8014.976939   	((9.942605e-12 1.901364e-08 -6.987620e-10) (3.101804e-12 3.305067e-08 -2.812972e-09)) ((-1.442778e-13 1.882913e-14 -3.506644e-15) (1.219886e-09 -4.034036e-13 2.334604e-12))
9280.682252   	((9.733014e-12 1.895187e-08 -7.305534e-10) (3.366930e-12 3.285096e-08 -2.853230e-09)) ((-1.433635e-13 1.886652e-14 -3.516416e-15) (1.213064e-09 -3.955840e-13 2.158396e-12))
10549.267132  	((9.492449e-12 1.889978e-08 -7.595277e-10) (3.607888e-12 3.268035e-08 -2.888944e-09)) ((-1.425388e-13 1.889833e-14 -3.524779e-15) (1.207281e-09 -3.867550e-13 1.988917e-12))
11820.307316  	((9.176180e-12 1.885534e-08 -7.840474e-10) (3.803203e-12 3.253451e-08 -2.920545e-09)) ((-1.417947e-13 1.893018e-14 -3.530046e-15) (1.202376e-09 -3.768876e-13 1.827734e-12))
13093.4475    	((8.841349e-12 1.881738e-08 -8.050423e-10) (3.973745e-12 3.240980e-08 -2.948453e-09)) ((-1.411250e-13 1.895948e-14 -3.533397e-15) (1.198213e-09 -3.659382e-13 1.675212e-12))
14368.384777  	((8.492314e-12 1.878475e-08 -8.230144e-10) (4.116198e-12 3.230295e-08 -2.973070e-09)) ((-1.405244e-13 1.898373e-14 -3.535569e-15) (1.194675e-09 -3.543966e-13 1.532006e-12))
15644.863642  	((8.153546e-12 1.875674e-08 -8.379811e-10) (4.232414e-12 3.221132e-08 -2.994767e-09)) ((-1.399887e-13 1.900795e-14 -3.537578e-15) (1.191662e-09 -3.424448e-13 1.398599e-12))
16922.665865  	((7.822467e-12 1.873261e-08 -8.503368e-10) (4.326792e-12 3.213263e-08 -3.013890e-09)) ((-1.395118e-13 1.903174e-14 -3.539597e-15) (1.189094e-09 -3.302412e-13 1.274537e-12))
18201.606361  	((7.511336e-12 1.871186e-08 -8.605287e-10) (4.397083e-12 3.206494e-08 -3.030742e-09)) ((-1.390887e-13 1.905282e-14 -3.540800e-15) (1.186899e-09 -3.178718e-13 1.159649e-12))
19481.526835  	((7.211300e-12 1.869395e-08 -8.689615e-10) (4.454924e-12 3.200662e-08 -3.045603e-09)) ((-1.387169e-13 1.907196e-14 -3.540236e-15) (1.185021e-09 -3.055118e-13 1.053573e-12))
20762.292291  	((6.923587e-12 1.867850e-08 -8.761050e-10) (4.497320e-12 3.195628e-08 -3.058718e-09)) ((-1.383884e-13 1.908968e-14 -3.538812e-15) (1.183409e-09 -2.933048e-13 9.561021e-13))
22043.787054  	((6.641036e-12 1.866508e-08 -8.816540e-10) (4.521900e-12 3.191278e-08 -3.070302e-09)) ((-1.381002e-13 1.910733e-14 -3.537196e-15) (1.182024e-09 -2.812993e-13 8.668643e-13))
23325.912274  	((6.375973e-12 1.865346e-08 -8.865796e-10) (4.532058e-12 3.187514e-08 -3.080542e-09)) ((-1.378462e-13 1.912173e-14 -3.535482e-15) (1.180832e-09 -2.695360e-13 7.853006e-13))
24608.583178  	((6.122306e-12 1.864339e-08 -8.903681e-10) (4.529070e-12 3.184252e-08 -3.089604e-09)) ((-1.376222e-13 1.913570e-14 -3.534011e-15) (1.179803e-09 -2.580562e-13 7.109417e-13))
25891.727071  	((5.882832e-12 1.863465e-08 -8.933775e-10) (4.515133e-12 3.181422e-08 -3.097631e-09)) ((-1.374252e-13 1.914877e-14 -3.532722e-15) (1.178914e-09 -2.469315e-13 6.433037e-13))
27175.281445  	((5.660293e-12 1.862701e-08 -8.958672e-10) (4.493446e-12 3.178963e-08 -3.104747e-09)) ((-1.372511e-13 1.916072e-14 -3.531355e-15) (1.178144e-09 -2.362301e-13 5.819270e-13))
28459.192513  	((5.453547e-12 1.862034e-08 -8.978454e-10) (4.465132e-12 3.176825e-08 -3.111064e-09)) ((-1.370987e-13 1.917187e-14 -3.529988e-15) (1.177476e-09 -2.259981e-13 5.262414e-13))
29743.413924  	((5.260533e-12 1.861453e-08 -8.993927e-10) (4.430677e-12 3.174963e-08 -3.116674e-09)) ((-1.369645e-13 1.918235e-14 -3.528750e-15) (1.176896e-09 -2.162217e-13 4.758254e-13))
31027.905691  	((5.077318e-12 1.860945e-08 -9.006264e-10) (4.391086e-12 3.173340e-08 -3.121658e-09)) ((-1.368458e-13 1.919204e-14 -3.527634e-15) (1.176391e-09 -2.069073e-13 4.302571e-13))
32312.633249  	((4.905605e-12 1.860502e-08 -9.015683e-10) (4.347234e-12 3.171924e-08 -3.126091e-09)) ((-1.367412e-13 1.920120e-14 -3.526608e-15) (1.175951e-09 -1.980684e-13 3.891178e-13))
33597.566694  	((4.749847e-12 1.860113e-08 -9.023276e-10) (4.300497e-12 3.170687e-08 -3.130036e-09)) ((-1.366491e-13 1.920960e-14 -3.525713e-15) (1.175567e-09 -1.897175e-13 3.520095e-13))
34882.680103  	((4.606506e-12 1.859770e-08 -9.028983e-10) (4.251571e-12 3.169605e-08 -3.133552e-09)) ((-1.365682e-13 1.921758e-14 -3.524985e-15) (1.175232e-09 -1.818543e-13 3.185733e-13))
36167.95101   	((4.473993e-12 1.859471e-08 -9.032965e-10) (4.201014e-12 3.168659e-08 -3.136684e-09)) ((-1.364969e-13 1.922491e-14 -3.524380e-15) (1.174939e-09 -1.744513e-13 2.884787e-13))
