# Forces      
# CofR        : (0.000000e+00 0.000000e+00 0.000000e+00)
# Time        forces(pressure viscous)	moments(pressure viscous)
0             	((0.000000e+00 0.000000e+00 0.000000e+00) (0.000000e+00 0.000000e+00 0.000000e+00)) ((0.000000e+00 0.000000e+00 0.000000e+00) (0.000000e+00 0.000000e+00 0.000000e+00))
0.012         	((1.068880e-06 -4.048954e-11 3.370444e-07) (2.637957e-06 -1.116955e-14 2.353844e-10)) ((1.739465e-14 -1.714802e-10 1.385097e-14) (1.970696e-15 -1.755485e-07 7.709015e-16))
0.0264        	((1.587546e-06 -9.004349e-10 5.322552e-07) (2.416409e-06 -2.295696e-13 1.329687e-10)) ((9.777853e-15 8.825958e-11 3.405021e-15) (7.363622e-15 -1.609781e-07 -4.785901e-15))
0.04368       	((1.008160e-06 5.383054e-10 3.220157e-07) (2.187806e-06 2.728140e-13 -2.890783e-11)) ((2.077206e-14 6.269837e-11 1.001966e-14) (2.102270e-14 -1.459898e-07 -2.319663e-14))
0.064416      	((1.196855e-06 -6.530994e-10 3.963629e-07) (1.957200e-06 4.600451e-13 -1.534771e-10)) ((1.232640e-14 1.220717e-10 -1.501289e-15) (3.918213e-14 -1.309223e-07 -3.332481e-14))
0.0892992     	((8.545728e-07 2.852386e-10 2.778936e-07) (1.731170e-06 4.609639e-13 -2.025101e-10)) ((5.787264e-15 8.657651e-11 7.811327e-15) (6.746808e-14 -1.162074e-07 -1.963638e-14))
0.119159      	((8.993938e-07 -3.184504e-10 2.905899e-07) (1.516964e-06 6.870737e-14 -2.146989e-10)) ((8.576552e-15 1.056016e-10 2.945334e-16) (5.839124e-14 -1.023280e-07 1.646897e-15))
0.154991      	((6.658172e-07 1.637395e-10 2.206799e-07) (1.321318e-06 -1.248934e-13 -2.561180e-10)) ((-2.678743e-15 7.351564e-11 7.378364e-16) (5.896792e-14 -8.957791e-08 3.641340e-14))
0.197989      	((6.667207e-07 -1.207731e-10 2.120694e-07) (1.148204e-06 -1.893217e-13 -3.016444e-10)) ((-3.904412e-15 8.302693e-11 -1.144067e-15) (5.810385e-14 -7.828529e-08 6.889834e-14))
0.249587      	((5.123262e-07 6.632507e-11 1.703981e-07) (1.000580e-06 -3.749929e-13 -3.463047e-10)) ((-2.542209e-15 5.929496e-11 1.889478e-16) (4.576624e-14 -6.858379e-08 8.508268e-14))
0.311504      	((5.018081e-07 -1.947290e-11 1.579122e-07) (8.777926e-07 -4.802284e-13 -3.937128e-10)) ((-6.953107e-15 6.553411e-11 6.321386e-16) (5.422103e-14 -6.047790e-08 8.304205e-14))
0.385805      	((4.019737e-07 1.070282e-11 1.334815e-07) (7.762592e-07 -4.200386e-13 -4.470708e-10)) ((-1.997306e-15 4.877246e-11 9.480409e-16) (5.334790e-14 -5.376721e-08 8.328657e-14))
0.474966      	((3.915875e-07 -1.374915e-11 1.226954e-07) (6.921772e-07 -4.078824e-13 -4.742182e-10)) ((-6.978033e-15 5.307127e-11 3.339396e-16) (5.352370e-14 -4.821818e-08 1.182329e-13))
0.581959      	((3.250551e-07 -4.037971e-12 1.074376e-07) (6.213250e-07 -5.842739e-13 -5.085711e-10)) ((-1.049491e-15 4.097717e-11 -8.815839e-16) (5.153216e-15 -4.353853e-08 9.184459e-14))
0.710351      	((3.156092e-07 1.008017e-11 9.836847e-08) (5.604379e-07 -4.465609e-13 -5.312316e-10)) ((-9.871035e-15 4.415592e-11 -1.116330e-15) (-2.040705e-14 -3.953014e-08 3.083197e-15))
0.864421      	((2.684547e-07 -1.714443e-11 8.811783e-08) (5.069088e-07 1.489699e-13 -5.456175e-10)) ((-4.341069e-15 3.568416e-11 -1.478951e-15) (-2.631395e-14 -3.600954e-08 -1.357833e-14))
1.049306      	((2.582862e-07 -2.773238e-12 8.006510e-08) (4.592461e-07 7.479551e-13 -5.412793e-10)) ((-1.183258e-14 3.811312e-11 -2.315200e-15) (9.309754e-14 -3.288923e-08 4.274571e-14))
1.271167      	((2.220896e-07 -1.762063e-11 7.208765e-08) (4.162540e-07 -4.913572e-13 -5.670498e-10)) ((-7.474343e-15 3.226968e-11 -4.903868e-15) (2.041432e-13 -3.007792e-08 1.323997e-13))
1.5374        	((2.108506e-07 -1.595649e-11 6.502255e-08) (3.774408e-07 -1.471203e-12 -5.176594e-10)) ((-1.461535e-14 3.352475e-11 -6.709768e-15) (3.025510e-13 -2.754250e-08 1.953524e-13))
1.85688       	((1.827947e-07 -2.453119e-11 5.860602e-08) (3.423918e-07 -2.317799e-12 -5.300521e-10)) ((-1.407239e-14 2.920989e-11 -6.755958e-15) (4.081874e-13 -2.525842e-08 1.895706e-13))
2.240256      	((1.711046e-07 -1.152696e-11 5.267398e-08) (3.109411e-07 -2.540968e-12 -5.297797e-10)) ((-1.799684e-14 2.954860e-11 -6.875146e-15) (6.007380e-13 -2.320745e-08 1.297753e-13))
2.700307      	((1.502328e-07 -1.755155e-11 4.773686e-08) (2.831106e-07 -1.461527e-12 -5.401971e-10)) ((-1.607424e-14 2.653914e-11 -7.375020e-15) (9.616669e-13 -2.139481e-08 -2.139506e-14))
3.252369      	((1.396549e-07 -2.990019e-11 4.301491e-08) (2.585585e-07 -1.584958e-12 -5.791223e-10)) ((-1.794049e-14 2.653092e-11 -7.850036e-15) (1.318180e-12 -1.979291e-08 -3.742704e-13))
3.914842      	((1.247841e-07 -1.749295e-11 3.919436e-08) (2.369875e-07 -1.067233e-12 -5.760433e-10)) ((-1.230419e-14 2.485253e-11 -8.181140e-15) (1.588336e-12 -1.838927e-08 -8.760574e-13))
4.709811      	((1.154424e-07 5.521594e-12 3.540271e-08) (2.180025e-07 1.575774e-13 -5.705659e-10)) ((-1.244969e-14 2.455405e-11 -1.029913e-14) (1.742948e-12 -1.715727e-08 -1.308571e-12))
5.663773      	((1.043822e-07 -8.079773e-12 3.232479e-08) (2.011419e-07 -1.591117e-12 -5.853528e-10)) ((-7.407080e-15 2.345931e-11 -1.169066e-14) (1.679231e-12 -1.606676e-08 -1.541015e-12))
6.808528      	((9.634226e-08 -3.102977e-11 2.924959e-08) (1.860133e-07 -3.815375e-12 -6.198164e-10)) ((-1.285674e-14 2.286019e-11 -1.218693e-14) (1.574282e-12 -1.509025e-08 -1.561496e-12))
8.182233      	((8.771115e-08 -3.536931e-11 2.657528e-08) (1.722906e-07 -5.774875e-12 -6.695833e-10)) ((-1.037471e-14 2.210573e-11 -1.068195e-14) (1.526625e-12 -1.420983e-08 -1.538398e-12))
9.83068       	((8.066251e-08 -2.972563e-11 2.402342e-08) (1.597419e-07 -7.367925e-12 -7.345781e-10)) ((-1.202529e-14 2.148065e-11 -9.264128e-15) (1.423775e-12 -1.341099e-08 -1.467352e-12))
11.808816     	((7.367174e-08 -1.908042e-11 2.169326e-08) (1.482170e-07 -7.365177e-12 -8.171108e-10)) ((-8.873774e-15 2.093906e-11 -8.294336e-15) (1.301133e-12 -1.268213e-08 -1.366547e-12))
14.182579     	((6.774711e-08 -2.080865e-11 1.949330e-08) (1.376238e-07 -7.983438e-12 -9.044570e-10)) ((-8.028067e-15 2.044203e-11 -7.202894e-15) (1.122046e-12 -1.201547e-08 -1.150624e-12))
17.031095     	((6.204730e-08 -1.891789e-11 1.744180e-08) (1.278844e-07 -9.978498e-12 -9.761838e-10)) ((-7.018983e-15 2.002205e-11 -5.973016e-15) (8.798240e-13 -1.140699e-08 -8.548157e-13))
20.449314     	((5.700645e-08 -2.181288e-11 1.545279e-08) (1.189408e-07 -1.167687e-11 -1.031014e-09)) ((-6.595679e-15 1.962847e-11 -5.053004e-15) (6.703410e-13 -1.085187e-08 -5.444090e-13))
24.551176     	((5.222139e-08 -1.911321e-11 1.359988e-08) (1.107484e-07 -1.260275e-11 -1.051008e-09)) ((-5.972311e-15 1.931228e-11 -4.201057e-15) (5.189282e-13 -1.034678e-08 -3.118091e-13))
29.473411     	((4.795907e-08 -2.100587e-11 1.187738e-08) (1.032622e-07 -1.294708e-11 -1.043374e-09)) ((-5.925412e-15 1.903092e-11 -3.474229e-15) (3.967780e-13 -9.888272e-09 -1.333917e-13))
35.380094     	((4.403891e-08 -2.220323e-11 1.030168e-08) (9.643453e-08 -1.320774e-11 -1.027074e-09)) ((-5.063089e-15 1.879942e-11 -2.893966e-15) (3.295929e-13 -9.472478e-09 -3.177652e-14))
42.468112     	((4.050826e-08 -2.019107e-11 8.829655e-09) (9.020523e-08 -1.279135e-11 -1.021300e-09)) ((-4.325584e-15 1.858698e-11 -2.005858e-15) (2.778127e-13 -9.095376e-09 1.945756e-14))
50.973735     	((3.722873e-08 -1.531952e-11 7.470253e-09) (8.451839e-08 -1.161827e-11 -1.026337e-09)) ((-4.407133e-15 1.840846e-11 -1.588809e-15) (2.419706e-13 -8.753419e-09 4.346063e-14))
61.180482     	((3.429112e-08 -1.334955e-11 6.169847e-09) (7.933562e-08 -1.070056e-11 -1.037382e-09)) ((-4.037412e-15 1.824593e-11 -1.295460e-15) (2.646434e-13 -8.443697e-09 1.665640e-15))
73.428578     	((3.165188e-08 -1.142562e-11 4.978557e-09) (7.461728e-08 -9.508905e-12 -1.048158e-09)) ((-3.065325e-15 1.811119e-11 -1.377903e-15) (3.025591e-13 -8.163891e-09 -6.338226e-14))
88.126294     	((2.930208e-08 -1.125255e-11 3.883210e-09) (7.033170e-08 -8.436639e-12 -1.060948e-09)) ((-2.663633e-15 1.799566e-11 -1.570643e-15) (3.585299e-13 -7.911821e-09 -1.319355e-13))
105.763553    	((2.722536e-08 -9.393747e-12 2.883091e-09) (6.644476e-08 -7.708936e-12 -1.082798e-09)) ((-2.487284e-15 1.790291e-11 -1.608064e-15) (3.997584e-13 -7.685400e-09 -1.805571e-13))
126.928263    	((2.537502e-08 -5.684081e-12 1.907016e-09) (6.292755e-08 -7.249893e-12 -1.119746e-09)) ((-2.293793e-15 1.782693e-11 -1.763830e-15) (4.180546e-13 -7.482729e-09 -2.126203e-13))
152.325916    	((2.376817e-08 -2.234269e-12 9.650859e-10) (5.975441e-08 -6.459972e-12 -1.173735e-09)) ((-2.284773e-15 1.776732e-11 -1.633582e-15) (4.257328e-13 -7.301952e-09 -2.520274e-13))
182.803099    	((2.237560e-08 -4.974476e-13 1.135436e-10) (5.690059e-08 -5.751531e-12 -1.243849e-09)) ((-2.395322e-15 1.771875e-11 -1.358354e-15) (4.310767e-13 -7.141217e-09 -2.800233e-13))
219.375719    	((2.117673e-08 2.192847e-13 -6.512412e-10) (5.434197e-08 -5.313725e-12 -1.330063e-09)) ((-2.362480e-15 1.768041e-11 -1.313613e-15) (4.402651e-13 -6.998749e-09 -2.796729e-13))
263.262863    	((2.015442e-08 1.107572e-12 -1.347205e-09) (5.205391e-08 -5.221798e-12 -1.434370e-09)) ((-2.313026e-15 1.764651e-11 -1.206598e-15) (4.447000e-13 -6.872873e-09 -2.639914e-13))
315.927436    	((1.928448e-08 2.210781e-12 -1.989240e-09) (5.001740e-08 -4.669998e-12 -1.560025e-09)) ((-2.139301e-15 1.762072e-11 -1.128513e-15) (4.476869e-13 -6.762212e-09 -2.599963e-13))
379.124923    	((1.857552e-08 3.668544e-12 -2.549595e-09) (4.821799e-08 -4.254886e-12 -1.709909e-09)) ((-2.213145e-15 1.760101e-11 -1.200437e-15) (4.415999e-13 -6.665630e-09 -2.492272e-13))
454.961908    	((1.801006e-08 5.055319e-12 -3.046455e-09) (4.664474e-08 -3.822746e-12 -1.882008e-09)) ((-2.302916e-15 1.758663e-11 -1.076442e-15) (4.285661e-13 -6.582194e-09 -2.286487e-13))
545.966289    	((1.757061e-08 5.694566e-12 -3.469751e-09) (4.528733e-08 -3.481947e-12 -2.072206e-09)) ((-2.263159e-15 1.757641e-11 -9.981780e-16) (4.084464e-13 -6.510957e-09 -1.951532e-13))
655.171547    	((1.724623e-08 5.085279e-12 -3.833410e-09) (4.413525e-08 -3.339571e-12 -2.278841e-09)) ((-2.154133e-15 1.757052e-11 -9.791151e-16) (3.902585e-13 -6.450954e-09 -1.513526e-13))
786.19122     	((1.701706e-08 4.756425e-12 -4.131400e-09) (4.317810e-08 -3.393158e-12 -2.496099e-09)) ((-1.929119e-15 1.756645e-11 -1.136219e-15) (3.682037e-13 -6.401221e-09 -1.026228e-13))
939.024151    	((1.686354e-08 5.371877e-12 -4.366188e-09) (4.240588e-08 -3.482201e-12 -2.715448e-09)) ((-1.723347e-15 1.756407e-11 -1.080622e-15) (3.517836e-13 -6.360938e-09 -5.069694e-14))
1113.669372   	((1.676596e-08 5.773119e-12 -4.547826e-09) (4.180221e-08 -3.591091e-12 -2.927615e-09)) ((-1.721912e-15 1.756269e-11 -8.601522e-16) (3.447147e-13 -6.329039e-09 -1.743698e-15))
1310.126272   	((1.671273e-08 6.566529e-12 -4.680366e-09) (4.134632e-08 -3.611381e-12 -3.123037e-09)) ((-1.740404e-15 1.756176e-11 -8.073518e-16) (3.380730e-13 -6.304388e-09 4.138964e-14))
1528.239187   	((1.668634e-08 7.401686e-12 -4.778277e-09) (4.101361e-08 -3.627983e-12 -3.293626e-09)) ((-1.776536e-15 1.756110e-11 -7.832966e-16) (3.292474e-13 -6.285803e-09 7.424707e-14))
1746.350021   	((1.667547e-08 8.066359e-12 -4.848500e-09) (4.078100e-08 -3.659921e-12 -3.433233e-09)) ((-1.814228e-15 1.756194e-11 -7.485339e-16) (3.197048e-13 -6.272295e-09 9.907281e-14))
1964.460551   	((1.666873e-08 8.564215e-12 -4.903095e-09) (4.062208e-08 -3.706581e-12 -3.542690e-09)) ((-1.843186e-15 1.756260e-11 -7.166373e-16) (3.097474e-13 -6.262647e-09 1.173906e-13))
2182.57202    	((1.666295e-08 8.968874e-12 -4.944327e-09) (4.051557e-08 -3.755385e-12 -3.625233e-09)) ((-1.863648e-15 1.756305e-11 -6.888585e-16) (3.004208e-13 -6.255878e-09 1.302733e-13))
2400.68528    	((1.665558e-08 9.331015e-12 -4.977948e-09) (4.044386e-08 -3.795541e-12 -3.686376e-09)) ((-1.874725e-15 1.756327e-11 -6.692150e-16) (2.917303e-13 -6.251133e-09 1.381366e-13))
2618.800734   	((1.664752e-08 9.653754e-12 -5.004831e-09) (4.039502e-08 -3.836924e-12 -3.731174e-09)) ((-1.877454e-15 1.756337e-11 -6.506959e-16) (2.838025e-13 -6.247799e-09 1.418426e-13))
2836.918439   	((1.663888e-08 9.970177e-12 -5.026813e-09) (4.036060e-08 -3.871915e-12 -3.764169e-09)) ((-1.872920e-15 1.756340e-11 -6.393289e-16) (2.765311e-13 -6.245420e-09 1.432411e-13))
3055.038257   	((1.663057e-08 1.018483e-11 -5.044576e-09) (4.033546e-08 -3.895322e-12 -3.788833e-09)) ((-1.864412e-15 1.756341e-11 -6.361381e-16) (2.707706e-13 -6.243695e-09 1.431107e-13))
3273.160012   	((1.662292e-08 1.034228e-11 -5.059190e-09) (4.031626e-08 -3.903771e-12 -3.807708e-09)) ((-1.853366e-15 1.756341e-11 -6.342635e-16) (2.661946e-13 -6.242413e-09 1.419995e-13))
3491.283457   	((1.661629e-08 1.047207e-11 -5.071263e-09) (4.030112e-08 -3.915897e-12 -3.822551e-09)) ((-1.845236e-15 1.756343e-11 -6.328984e-16) (2.630454e-13 -6.241438e-09 1.404093e-13))
3709.408336   	((1.661056e-08 1.055439e-11 -5.081275e-09) (4.028884e-08 -3.926788e-12 -3.834541e-09)) ((-1.839565e-15 1.756346e-11 -6.364827e-16) (2.611251e-13 -6.240681e-09 1.386569e-13))
3927.534411   	((1.660570e-08 1.062582e-11 -5.089603e-09) (4.027872e-08 -3.934904e-12 -3.844436e-09)) ((-1.835185e-15 1.756349e-11 -6.393641e-16) (2.598155e-13 -6.240085e-09 1.367531e-13))
4145.661473   	((1.660156e-08 1.067942e-11 -5.096617e-09) (4.027029e-08 -3.940703e-12 -3.852748e-09)) ((-1.831435e-15 1.756353e-11 -6.435276e-16) (2.588751e-13 -6.239608e-09 1.347779e-13))
4363.789361   	((1.659808e-08 1.072663e-11 -5.102495e-09) (4.026324e-08 -3.943214e-12 -3.859829e-09)) ((-1.827251e-15 1.756357e-11 -6.483845e-16) (2.582166e-13 -6.239223e-09 1.328975e-13))
4581.91794    	((1.659508e-08 1.077098e-11 -5.107598e-09) (4.025731e-08 -3.944244e-12 -3.865916e-09)) ((-1.823333e-15 1.756360e-11 -6.508729e-16) (2.578327e-13 -6.238911e-09 1.311916e-13))
4800.047087   	((1.659254e-08 1.079580e-11 -5.111896e-09) (4.025233e-08 -3.941387e-12 -3.871177e-09)) ((-1.819992e-15 1.756364e-11 -6.559821e-16) (2.576277e-13 -6.238655e-09 1.295791e-13))
5018.1767     	((1.659036e-08 1.081225e-11 -5.115557e-09) (4.024811e-08 -3.938256e-12 -3.875740e-09)) ((-1.818629e-15 1.756367e-11 -6.609560e-16) (2.574784e-13 -6.238445e-09 1.281321e-13))
5236.306698   	((1.658849e-08 1.082783e-11 -5.118698e-09) (4.024455e-08 -3.935155e-12 -3.879709e-09)) ((-1.818363e-15 1.756370e-11 -6.662843e-16) (2.573544e-13 -6.238272e-09 1.269285e-13))
5454.437015   	((1.658687e-08 1.086785e-11 -5.121430e-09) (4.024153e-08 -3.932244e-12 -3.883167e-09)) ((-1.821369e-15 1.756373e-11 -6.718316e-16) (2.572765e-13 -6.238128e-09 1.259530e-13))
5672.567596   	((1.658547e-08 1.089444e-11 -5.123787e-09) (4.023896e-08 -3.928685e-12 -3.886186e-09)) ((-1.824147e-15 1.756376e-11 -6.768784e-16) (2.572361e-13 -6.238008e-09 1.251601e-13))
5890.698398   	((1.658427e-08 1.092482e-11 -5.125812e-09) (4.023677e-08 -3.927364e-12 -3.888829e-09)) ((-1.824241e-15 1.756378e-11 -6.783989e-16) (2.572484e-13 -6.237908e-09 1.245750e-13))
6108.829387   	((1.658323e-08 1.093994e-11 -5.127573e-09) (4.023490e-08 -3.927275e-12 -3.891144e-09)) ((-1.823770e-15 1.756380e-11 -6.801286e-16) (2.572141e-13 -6.237824e-09 1.240897e-13))
6326.960534   	((1.658235e-08 1.095646e-11 -5.129054e-09) (4.023329e-08 -3.927710e-12 -3.893171e-09)) ((-1.822120e-15 1.756382e-11 -6.828813e-16) (2.571488e-13 -6.237754e-09 1.237399e-13))
6545.091814   	((1.658158e-08 1.096667e-11 -5.130361e-09) (4.023192e-08 -3.927597e-12 -3.894952e-09)) ((-1.820231e-15 1.756383e-11 -6.843363e-16) (2.570758e-13 -6.237695e-09 1.234376e-13))
6763.223207   	((1.658090e-08 1.097421e-11 -5.131506e-09) (4.023073e-08 -3.927089e-12 -3.896517e-09)) ((-1.818234e-15 1.756384e-11 -6.852874e-16) (2.570113e-13 -6.237644e-09 1.231508e-13))
6981.354698   	((1.658030e-08 1.100669e-11 -5.132526e-09) (4.022971e-08 -3.926973e-12 -3.897892e-09)) ((-1.816685e-15 1.756385e-11 -6.861062e-16) (2.569251e-13 -6.237601e-09 1.228667e-13))
7199.486273   	((1.657978e-08 1.102558e-11 -5.133418e-09) (4.022882e-08 -3.926829e-12 -3.899102e-09)) ((-1.815239e-15 1.756386e-11 -6.867229e-16) (2.568489e-13 -6.237565e-09 1.226069e-13))
7417.617919   	((1.657933e-08 1.103490e-11 -5.134191e-09) (4.022806e-08 -3.926608e-12 -3.900166e-09)) ((-1.813899e-15 1.756386e-11 -6.872921e-16) (2.567877e-13 -6.237534e-09 1.223812e-13))
7635.749626   	((1.657894e-08 1.103870e-11 -5.134864e-09) (4.022739e-08 -3.926524e-12 -3.901104e-09)) ((-1.812828e-15 1.756387e-11 -6.873915e-16) (2.567300e-13 -6.237507e-09 1.221877e-13))
7853.881387   	((1.657860e-08 1.104093e-11 -5.135454e-09) (4.022682e-08 -3.926461e-12 -3.901930e-09)) ((-1.811846e-15 1.756388e-11 -6.875013e-16) (2.566795e-13 -6.237485e-09 1.220188e-13))
8072.013195   	((1.657829e-08 1.104195e-11 -5.135969e-09) (4.022632e-08 -3.926287e-12 -3.902660e-09)) ((-1.811291e-15 1.756388e-11 -6.874950e-16) (2.566473e-13 -6.237465e-09 1.218696e-13))
8290.145042   	((1.657803e-08 1.106162e-11 -5.136443e-09) (4.022588e-08 -3.926387e-12 -3.903303e-09)) ((-1.810932e-15 1.756389e-11 -6.874941e-16) (2.566116e-13 -6.237448e-09 1.217428e-13))
8508.276924   	((1.657779e-08 1.106947e-11 -5.136848e-09) (4.022550e-08 -3.926196e-12 -3.903871e-09)) ((-1.810527e-15 1.756389e-11 -6.874973e-16) (2.565966e-13 -6.237434e-09 1.216290e-13))
8726.408837   	((1.657759e-08 1.107255e-11 -5.137201e-09) (4.022517e-08 -3.926308e-12 -3.904372e-09)) ((-1.810113e-15 1.756389e-11 -6.875095e-16) (2.565826e-13 -6.237421e-09 1.215403e-13))
8944.540776   	((1.657741e-08 1.107320e-11 -5.137508e-09) (4.022488e-08 -3.926196e-12 -3.904815e-09)) ((-1.809730e-15 1.756390e-11 -6.875117e-16) (2.565790e-13 -6.237410e-09 1.214521e-13))
9162.672738   	((1.657725e-08 1.107411e-11 -5.137779e-09) (4.022462e-08 -3.926113e-12 -3.905207e-09)) ((-1.809395e-15 1.756390e-11 -6.875183e-16) (2.565772e-13 -6.237401e-09 1.213736e-13))
9380.80472    	((1.657712e-08 1.107518e-11 -5.138019e-09) (4.022440e-08 -3.925946e-12 -3.905554e-09)) ((-1.809013e-15 1.756390e-11 -6.875745e-16) (2.565752e-13 -6.237393e-09 1.213022e-13))
9598.93672    	((1.657699e-08 1.112821e-11 -5.138293e-09) (4.022421e-08 -3.925394e-12 -3.905860e-09)) ((-1.809360e-15 1.756391e-11 -6.874087e-16) (2.565925e-13 -6.237385e-09 1.212405e-13))
