# Forces      
# CofR        : (0.000000e+00 0.000000e+00 0.000000e+00)
# Time        forces(pressure viscous)	moments(pressure viscous)
0             	((0.000000e+00 0.000000e+00 0.000000e+00) (-7.673915e-12 2.518474e-02 2.350311e-12)) ((0.000000e+00 0.000000e+00 0.000000e+00) (5.658727e-04 -8.320613e-14 -1.085973e-08))
0.0112174     	((6.592473e-04 7.899153e+00 7.029957e-01) (8.918062e-07 5.381502e-02 -7.686096e-03)) ((-9.293785e-05 7.208177e-06 -1.680868e-06) (1.773981e-03 6.526758e-08 -6.385611e-08))
0.0246783     	((-5.159636e-04 -3.643382e+00 -2.259145e+00) (1.195701e-05 4.961943e-02 -9.833747e-03)) ((4.369049e-05 -2.292752e-06 7.195242e-07) (1.810388e-03 1.131805e-08 -7.689490e-08))
0.0408314     	((3.094656e-04 7.500810e-01 -1.160373e+00) (6.998328e-06 4.050403e-02 -7.032430e-03)) ((-3.629902e-06 7.801542e-07 -8.660271e-08) (1.450018e-03 5.195630e-09 4.213636e-08))
0.0602152     	((-8.888178e-04 -2.929547e-01 -1.204146e+00) (-1.263641e-05 3.742052e-02 -6.597099e-03)) ((3.413759e-06 7.097570e-07 -2.678012e-07) (1.335317e-03 3.375818e-08 4.861285e-07))
0.0829369     	((-1.918127e-04 2.109677e-01 -1.105500e+00) (-2.271460e-05 3.545419e-02 -6.590624e-03)) ((-5.521990e-07 8.248519e-07 -1.996211e-07) (1.266803e-03 5.888774e-08 8.129228e-07))
0.108976      	((-8.255207e-04 -1.260473e-02 -1.148851e+00) (-2.949061e-05 3.470111e-02 -6.752809e-03)) ((-1.697796e-07 8.251570e-07 -2.545893e-07) (1.242549e-03 1.141602e-07 9.395209e-07))
0.138313      	((-2.312844e-04 9.547306e-02 -1.115152e+00) (-2.776340e-05 3.406153e-02 -7.067357e-03)) ((-1.031667e-06 8.246255e-07 -3.011557e-07) (1.215124e-03 1.439606e-07 1.084211e-06))
0.170925      	((-4.543519e-04 5.303248e-02 -1.134323e+00) (-2.619554e-05 3.366972e-02 -7.395531e-03)) ((-1.642286e-06 8.251325e-07 -3.709348e-07) (1.199086e-03 1.562452e-07 1.313597e-06))
0.203709      	((-1.575357e-04 8.501963e-02 -1.120885e+00) (-2.474459e-05 3.345260e-02 -7.675444e-03)) ((-2.159160e-06 8.862175e-07 -4.029939e-07) (1.189064e-03 1.524511e-07 1.442416e-06))
0.236432      	((-1.550643e-04 7.999592e-02 -1.127150e+00) (-2.265586e-05 3.333443e-02 -7.933741e-03)) ((-2.609877e-06 9.695512e-07 -4.659071e-07) (1.182560e-03 1.325935e-07 1.584503e-06))
0.268943      	((7.514715e-05 9.367486e-02 -1.117475e+00) (-2.267091e-05 3.324685e-02 -8.125209e-03)) ((-3.014234e-06 1.040082e-06 -4.881276e-07) (1.176422e-03 8.553928e-08 1.722111e-06))
0.301225      	((1.064207e-04 9.690006e-02 -1.115138e+00) (-2.312847e-05 3.314989e-02 -8.263913e-03)) ((-3.397504e-06 1.117946e-06 -5.353162e-07) (1.169775e-03 3.809885e-08 1.835054e-06))
0.333371      	((4.078067e-04 1.032265e-01 -1.104577e+00) (-2.368119e-05 3.300091e-02 -8.344803e-03)) ((-3.784217e-06 1.181491e-06 -5.609936e-07) (1.161864e-03 -4.486237e-09 2.025486e-06))
0.36549       	((5.969963e-04 1.054612e-01 -1.098033e+00) (-2.530623e-05 3.280887e-02 -8.420107e-03)) ((-4.142305e-06 1.186868e-06 -6.012204e-07) (1.153346e-03 -4.559214e-08 2.182374e-06))
0.397622      	((8.747731e-04 1.074392e-01 -1.088674e+00) (-2.518684e-05 3.260041e-02 -8.483469e-03)) ((-4.426015e-06 1.229217e-06 -6.397093e-07) (1.145003e-03 -9.656866e-08 2.276369e-06))
0.429846      	((1.244525e-03 1.075763e-01 -1.081338e+00) (-2.281200e-05 3.240098e-02 -8.536862e-03)) ((-4.673243e-06 1.249831e-06 -6.785930e-07) (1.137494e-03 -1.504451e-07 2.373648e-06))
0.462162      	((1.719805e-03 1.080218e-01 -1.074289e+00) (-1.914309e-05 3.222441e-02 -8.588726e-03)) ((-4.827345e-06 1.265264e-06 -7.068092e-07) (1.130999e-03 -2.079367e-07 2.514236e-06))
0.494484      	((2.170467e-03 1.073337e-01 -1.068032e+00) (-1.546887e-05 3.206525e-02 -8.624910e-03)) ((-4.978377e-06 1.294575e-06 -7.318926e-07) (1.125211e-03 -2.754401e-07 2.634615e-06))
0.526809      	((2.633840e-03 1.067618e-01 -1.062166e+00) (-1.218720e-05 3.191768e-02 -8.656649e-03)) ((-5.067592e-06 1.308199e-06 -7.531059e-07) (1.119850e-03 -3.459526e-07 2.732797e-06))
0.559149      	((3.132605e-03 1.057928e-01 -1.056967e+00) (-9.061121e-06 3.178318e-02 -8.689262e-03)) ((-5.111905e-06 1.337286e-06 -7.719374e-07) (1.114984e-03 -4.273236e-07 2.834173e-06))
0.591511      	((3.720211e-03 1.049659e-01 -1.051678e+00) (-5.315479e-06 3.165592e-02 -8.715874e-03)) ((-5.164260e-06 1.359407e-06 -7.907949e-07) (1.110334e-03 -5.280371e-07 2.919338e-06))
0.623891      	((4.380133e-03 1.044859e-01 -1.047189e+00) (-1.034072e-06 3.153760e-02 -8.744847e-03)) ((-5.188277e-06 1.378976e-06 -8.111940e-07) (1.105900e-03 -6.473159e-07 3.005336e-06))
0.656286      	((5.060008e-03 1.041294e-01 -1.043035e+00) (3.027766e-06 3.143026e-02 -8.769957e-03)) ((-5.234454e-06 1.403799e-06 -8.286036e-07) (1.101900e-03 -7.804724e-07 3.128677e-06))
0.688694      	((5.838281e-03 1.037936e-01 -1.039456e+00) (7.069687e-06 3.133369e-02 -8.791014e-03)) ((-5.285379e-06 1.423495e-06 -8.443659e-07) (1.098408e-03 -9.327140e-07 3.302325e-06))
0.721116      	((6.708140e-03 1.033532e-01 -1.035982e+00) (1.109008e-05 3.124831e-02 -8.807411e-03)) ((-5.315814e-06 1.442137e-06 -8.577548e-07) (1.095445e-03 -1.106733e-06 3.519354e-06))
0.753552      	((7.702957e-03 1.028414e-01 -1.032608e+00) (1.522529e-05 3.117199e-02 -8.819033e-03)) ((-5.344909e-06 1.461109e-06 -8.707133e-07) (1.092876e-03 -1.303704e-06 3.778084e-06))
0.785998      	((8.817916e-03 1.023696e-01 -1.029454e+00) (1.945957e-05 3.110273e-02 -8.829814e-03)) ((-5.362453e-06 1.477729e-06 -8.826779e-07) (1.090549e-03 -1.527294e-06 4.101802e-06))
0.818452      	((1.010533e-02 1.018564e-01 -1.026522e+00) (2.386353e-05 3.103931e-02 -8.840596e-03)) ((-5.371380e-06 1.495264e-06 -8.947114e-07) (1.088388e-03 -1.782251e-06 4.494818e-06))
0.850911      	((1.156768e-02 1.013800e-01 -1.023857e+00) (2.868518e-05 3.098046e-02 -8.851611e-03)) ((-5.374379e-06 1.512368e-06 -9.072269e-07) (1.086346e-03 -2.075424e-06 4.950708e-06))
0.883377      	((1.322105e-02 1.008317e-01 -1.021320e+00) (3.401141e-05 3.092522e-02 -8.863074e-03)) ((-5.370698e-06 1.535239e-06 -9.187639e-07) (1.084401e-03 -2.415053e-06 5.476321e-06))
0.915847      	((1.507007e-02 1.003730e-01 -1.019030e+00) (3.977691e-05 3.087358e-02 -8.874949e-03)) ((-5.364729e-06 1.562446e-06 -9.312566e-07) (1.082570e-03 -2.805088e-06 6.079276e-06))
0.94832       	((1.716308e-02 9.996126e-02 -1.016910e+00) (4.628376e-05 3.082535e-02 -8.886037e-03)) ((-5.353366e-06 1.595384e-06 -9.439230e-07) (1.080874e-03 -3.251762e-06 6.752031e-06))
0.980796      	((1.952085e-02 9.964869e-02 -1.015021e+00) (5.398914e-05 3.078072e-02 -8.896227e-03)) ((-5.336889e-06 1.634268e-06 -9.570859e-07) (1.079327e-03 -3.762123e-06 7.491105e-06))
1.013273      	((2.216827e-02 9.941663e-02 -1.013312e+00) (6.319271e-05 3.074010e-02 -8.905716e-03)) ((-5.316085e-06 1.677314e-06 -9.704205e-07) (1.077941e-03 -4.342758e-06 8.300697e-06))
1.045751      	((2.513417e-02 9.928004e-02 -1.011765e+00) (7.383255e-05 3.070317e-02 -8.914141e-03)) ((-5.290308e-06 1.724698e-06 -9.822726e-07) (1.076698e-03 -4.996450e-06 9.194199e-06))
1.078228      	((2.844914e-02 9.918793e-02 -1.010359e+00) (8.596624e-05 3.066965e-02 -8.921893e-03)) ((-5.263254e-06 1.776120e-06 -9.924616e-07) (1.075581e-03 -5.724252e-06 1.019287e-05))
1.110703      	((3.219828e-02 9.915302e-02 -1.009070e+00) (9.957803e-05 3.063947e-02 -8.928583e-03)) ((-5.235031e-06 1.830557e-06 -1.001313e-06) (1.074602e-03 -6.531603e-06 1.131953e-05))
1.143176      	((3.640190e-02 9.923219e-02 -1.007926e+00) (1.147758e-04 3.061274e-02 -8.933546e-03)) ((-5.209290e-06 1.885794e-06 -1.008459e-06) (1.073779e-03 -7.427263e-06 1.258920e-05))
1.175643      	((4.112376e-02 9.937412e-02 -1.006898e+00) (1.317807e-04 3.058966e-02 -8.936571e-03)) ((-5.180231e-06 1.946961e-06 -1.014892e-06) (1.073126e-03 -8.420999e-06 1.401952e-05))
1.208104      	((4.644944e-02 9.965692e-02 -1.006038e+00) (1.507340e-04 3.057004e-02 -8.937709e-03)) ((-5.149060e-06 2.014068e-06 -1.021236e-06) (1.072643e-03 -9.527538e-06 1.563891e-05))
1.240558      	((5.242411e-02 1.000778e-01 -1.005364e+00) (1.717213e-04 3.055411e-02 -8.937094e-03)) ((-5.111246e-06 2.090329e-06 -1.029773e-06) (1.072328e-03 -1.076962e-05 1.747166e-05))
1.273001      	((5.913712e-02 1.006135e-01 -1.004859e+00) (1.953492e-04 3.054240e-02 -8.934670e-03)) ((-5.064506e-06 2.177896e-06 -1.041240e-06) (1.072195e-03 -1.217119e-05 1.951891e-05))
1.305434      	((6.662648e-02 1.012771e-01 -1.004487e+00) (2.224262e-04 3.053462e-02 -8.930644e-03)) ((-5.009933e-06 2.277411e-06 -1.053066e-06) (1.072238e-03 -1.375839e-05 2.179594e-05))
1.337852      	((7.501150e-02 1.021680e-01 -1.004285e+00) (2.533319e-04 3.053113e-02 -8.924617e-03)) ((-4.955697e-06 2.391623e-06 -1.066382e-06) (1.072481e-03 -1.554912e-05 2.432932e-05))
1.370254      	((8.431881e-02 1.034087e-01 -1.004303e+00) (2.887031e-04 3.053292e-02 -8.915717e-03)) ((-4.905555e-06 2.521081e-06 -1.077590e-06) (1.072992e-03 -1.756306e-05 2.713395e-05))
1.402638      	((9.447468e-02 1.051122e-01 -1.004576e+00) (3.285825e-04 3.054098e-02 -8.903125e-03)) ((-4.863761e-06 2.662341e-06 -1.085650e-06) (1.073837e-03 -1.981719e-05 3.021259e-05))
1.435001      	((1.057098e-01 1.071798e-01 -1.005012e+00) (3.733820e-04 3.055605e-02 -8.886027e-03)) ((-4.820095e-06 2.824837e-06 -1.092375e-06) (1.075075e-03 -2.233692e-05 3.358048e-05))
1.46734       	((1.178406e-01 1.098261e-01 -1.005903e+00) (4.230344e-04 3.057926e-02 -8.863582e-03)) ((-4.780751e-06 3.009141e-06 -1.098967e-06) (1.076776e-03 -2.513634e-05 3.727189e-05))
1.499652      	((1.310332e-01 1.128753e-01 -1.007021e+00) (4.780842e-04 3.061127e-02 -8.835176e-03)) ((-4.740200e-06 3.218113e-06 -1.106982e-06) (1.078998e-03 -2.822762e-05 4.131108e-05))
1.531936      	((1.450448e-01 1.166454e-01 -1.008569e+00) (5.388112e-04 3.065285e-02 -8.800559e-03)) ((-4.715862e-06 3.438398e-06 -1.116709e-06) (1.081794e-03 -3.161849e-05 4.574226e-05))
1.564187      	((1.596190e-01 1.211731e-01 -1.010621e+00) (6.048697e-04 3.070617e-02 -8.760134e-03)) ((-4.696113e-06 3.661000e-06 -1.124403e-06) (1.085194e-03 -3.530467e-05 5.049770e-05))
1.596402      	((1.742993e-01 1.267053e-01 -1.013480e+00) (6.753315e-04 3.077350e-02 -8.714591e-03)) ((-4.687915e-06 3.871205e-06 -1.129606e-06) (1.089186e-03 -3.925746e-05 5.548646e-05))
1.628573      	((1.886002e-01 1.327450e-01 -1.016727e+00) (7.492459e-04 3.085356e-02 -8.665013e-03)) ((-4.680003e-06 4.068075e-06 -1.141439e-06) (1.093718e-03 -4.340424e-05 6.073357e-05))
1.660696      	((2.018858e-01 1.395605e-01 -1.020874e+00) (8.243775e-04 3.094509e-02 -8.612636e-03)) ((-4.678755e-06 4.245564e-06 -1.166197e-06) (1.098754e-03 -4.765288e-05 6.620424e-05))
1.692765      	((2.135065e-01 1.467963e-01 -1.025412e+00) (8.964222e-04 3.104724e-02 -8.557789e-03)) ((-4.678503e-06 4.382876e-06 -1.201399e-06) (1.104228e-03 -5.185136e-05 7.180728e-05))
1.724774      	((2.225902e-01 1.544128e-01 -1.030692e+00) (9.615225e-04 3.115918e-02 -8.500080e-03)) ((-4.684489e-06 4.456127e-06 -1.229389e-06) (1.110085e-03 -5.582506e-05 7.735953e-05))
1.756723      	((2.286590e-01 1.614482e-01 -1.036229e+00) (1.015526e-03 3.128101e-02 -8.440378e-03)) ((-4.684954e-06 4.448637e-06 -1.256369e-06) (1.116250e-03 -5.943778e-05 8.270813e-05))
1.788617      	((2.314808e-01 1.674361e-01 -1.041807e+00) (1.055807e-03 3.140880e-02 -8.379402e-03)) ((-4.674236e-06 4.379413e-06 -1.275302e-06) (1.122477e-03 -6.253585e-05 8.762303e-05))
1.820462      	((2.305519e-01 1.718718e-01 -1.047047e+00) (1.080162e-03 3.153481e-02 -8.320109e-03)) ((-4.667580e-06 4.237051e-06 -1.296711e-06) (1.128460e-03 -6.490528e-05 9.185017e-05))
1.85227       	((2.258467e-01 1.749405e-01 -1.052089e+00) (1.082067e-03 3.165582e-02 -8.265163e-03)) ((-4.673346e-06 4.015256e-06 -1.314194e-06) (1.134049e-03 -6.627686e-05 9.537275e-05))
1.884049      	((2.184488e-01 1.761319e-01 -1.056381e+00) (1.056584e-03 3.176885e-02 -8.214891e-03)) ((-4.677782e-06 3.756194e-06 -1.307152e-06) (1.139143e-03 -6.647332e-05 9.824045e-05))
1.915805      	((2.093717e-01 1.756757e-01 -1.060037e+00) (1.005105e-03 3.187081e-02 -8.167548e-03)) ((-4.680711e-06 3.490397e-06 -1.269361e-06) (1.143793e-03 -6.548810e-05 1.003948e-04))
1.947543      	((1.999491e-01 1.746118e-01 -1.063394e+00) (9.342232e-04 3.196352e-02 -8.122665e-03)) ((-4.671044e-06 3.252485e-06 -1.225063e-06) (1.148162e-03 -6.348549e-05 1.017655e-04))
1.979272      	((1.913458e-01 1.724265e-01 -1.066332e+00) (8.526863e-04 3.204804e-02 -8.081182e-03)) ((-4.626021e-06 3.089376e-06 -1.186786e-06) (1.152347e-03 -6.079906e-05 1.023805e-04))
2.010999      	((1.843321e-01 1.696630e-01 -1.069275e+00) (7.722079e-04 3.212670e-02 -8.044847e-03)) ((-4.527474e-06 3.023775e-06 -1.168070e-06) (1.156395e-03 -5.782510e-05 1.021970e-04))
2.04273       	((1.792409e-01 1.660931e-01 -1.072180e+00) (7.052675e-04 3.220018e-02 -8.021398e-03)) ((-4.341824e-06 3.062203e-06 -1.170096e-06) (1.160055e-03 -5.501975e-05 1.011669e-04))
2.074469      	((1.756092e-01 1.627071e-01 -1.075669e+00) (6.625064e-04 3.226720e-02 -8.020572e-03)) ((-4.085744e-06 3.176256e-06 -1.182195e-06) (1.162868e-03 -5.284950e-05 9.922888e-05))
2.106217      	((1.730064e-01 1.586039e-01 -1.079084e+00) (6.467005e-04 3.232382e-02 -8.047925e-03)) ((-3.787965e-06 3.337450e-06 -1.179371e-06) (1.164440e-03 -5.154014e-05 9.651851e-05))
2.137976      	((1.703767e-01 1.542242e-01 -1.082653e+00) (6.434505e-04 3.236131e-02 -8.098542e-03)) ((-3.503287e-06 3.496674e-06 -1.156957e-06) (1.164765e-03 -5.091639e-05 9.381852e-05))
2.169743      	((1.667433e-01 1.504742e-01 -1.085910e+00) (6.371201e-04 3.237858e-02 -8.156630e-03)) ((-3.282047e-06 3.595269e-06 -1.136400e-06) (1.164270e-03 -5.048157e-05 9.165664e-05))
2.201518      	((1.625034e-01 1.475724e-01 -1.088255e+00) (6.183381e-04 3.238183e-02 -8.208326e-03)) ((-3.144376e-06 3.597653e-06 -1.142933e-06) (1.163396e-03 -4.979458e-05 9.017464e-05))
2.233301      	((1.577116e-01 1.458922e-01 -1.089201e+00) (5.851408e-04 3.237633e-02 -8.245688e-03)) ((-3.145950e-06 3.473037e-06 -1.149110e-06) (1.162415e-03 -4.868336e-05 8.930126e-05))
2.265092      	((1.527849e-01 1.448898e-01 -1.089092e+00) (5.407426e-04 3.236616e-02 -8.264292e-03)) ((-3.284572e-06 3.212846e-06 -1.144341e-06) (1.161572e-03 -4.709808e-05 8.882036e-05))
2.296892      	((1.478012e-01 1.447409e-01 -1.089056e+00) (4.946765e-04 3.235797e-02 -8.265336e-03)) ((-3.453511e-06 2.908732e-06 -1.117962e-06) (1.160969e-03 -4.508386e-05 8.822743e-05))
2.328701      	((1.433891e-01 1.445193e-01 -1.088578e+00) (4.473846e-04 3.235323e-02 -8.262524e-03)) ((-3.576747e-06 2.628841e-06 -1.061054e-06) (1.160251e-03 -4.302580e-05 8.751112e-05))
2.36052       	((1.402662e-01 1.453644e-01 -1.088243e+00) (3.955455e-04 3.234747e-02 -8.258462e-03)) ((-3.693829e-06 2.384308e-06 -1.028732e-06) (1.159511e-03 -4.100427e-05 8.709624e-05))
2.39235       	((1.390649e-01 1.460690e-01 -1.088072e+00) (3.442474e-04 3.233920e-02 -8.247502e-03)) ((-3.760507e-06 2.242443e-06 -1.007328e-06) (1.159121e-03 -3.892130e-05 8.708290e-05))
2.424191      	((1.394867e-01 1.467915e-01 -1.088109e+00) (2.946365e-04 3.232940e-02 -8.235461e-03)) ((-3.782944e-06 2.237673e-06 -1.008042e-06) (1.159081e-03 -3.702871e-05 8.754942e-05))
2.456041      	((1.411774e-01 1.467892e-01 -1.088840e+00) (2.503718e-04 3.231813e-02 -8.231688e-03)) ((-3.707797e-06 2.382165e-06 -1.042958e-06) (1.159179e-03 -3.561826e-05 8.838467e-05))
2.4879        	((1.443449e-01 1.464398e-01 -1.090452e+00) (2.203710e-04 3.230354e-02 -8.240644e-03)) ((-3.556808e-06 2.647774e-06 -1.102919e-06) (1.159240e-03 -3.491132e-05 8.929959e-05))
2.519767      	((1.484424e-01 1.452722e-01 -1.092354e+00) (2.204572e-04 3.229130e-02 -8.265293e-03)) ((-3.271098e-06 3.049597e-06 -1.168816e-06) (1.159110e-03 -3.508727e-05 8.946739e-05))
2.55164       	((1.521851e-01 1.443774e-01 -1.094199e+00) (2.493681e-04 3.228336e-02 -8.309471e-03)) ((-2.943064e-06 3.442370e-06 -1.204379e-06) (1.158483e-03 -3.615961e-05 8.879961e-05))
2.583516      	((1.547220e-01 1.443886e-01 -1.095871e+00) (2.890104e-04 3.227503e-02 -8.366481e-03)) ((-2.686660e-06 3.714049e-06 -1.219018e-06) (1.157316e-03 -3.779536e-05 8.799700e-05))
2.615394      	((1.554562e-01 1.456119e-01 -1.097282e+00) (3.247884e-04 3.226526e-02 -8.424366e-03)) ((-2.568833e-06 3.818909e-06 -1.220592e-06) (1.155959e-03 -3.945494e-05 8.749662e-05))
2.647271      	((1.553383e-01 1.473087e-01 -1.097870e+00) (3.480567e-04 3.225279e-02 -8.469655e-03)) ((-2.576905e-06 3.774004e-06 -1.219499e-06) (1.154760e-03 -4.064260e-05 8.754543e-05))
2.679147      	((1.545866e-01 1.494842e-01 -1.098561e+00) (3.537269e-04 3.223614e-02 -8.492251e-03)) ((-2.701538e-06 3.585983e-06 -1.223639e-06) (1.153938e-03 -4.109826e-05 8.827030e-05))
2.71102       	((1.541596e-01 1.515338e-01 -1.098672e+00) (3.419435e-04 3.221689e-02 -8.496095e-03)) ((-2.842153e-06 3.356163e-06 -1.232320e-06) (1.153576e-03 -4.085690e-05 8.962404e-05))
2.742891      	((1.537249e-01 1.535507e-01 -1.098658e+00) (3.194336e-04 3.219773e-02 -8.484865e-03)) ((-2.996579e-06 3.089222e-06 -1.240580e-06) (1.153633e-03 -4.006897e-05 9.131589e-05))
2.774758      	((1.525070e-01 1.552207e-01 -1.098630e+00) (2.903413e-04 3.217842e-02 -8.463100e-03)) ((-3.130070e-06 2.846747e-06 -1.238283e-06) (1.153917e-03 -3.890523e-05 9.311193e-05))
2.806624      	((1.503814e-01 1.567223e-01 -1.098732e+00) (2.586103e-04 3.216237e-02 -8.443479e-03)) ((-3.238096e-06 2.681124e-06 -1.216870e-06) (1.154289e-03 -3.758223e-05 9.465687e-05))
2.838489      	((1.482169e-01 1.571908e-01 -1.098788e+00) (2.299882e-04 3.215281e-02 -8.431779e-03)) ((-3.261985e-06 2.661238e-06 -1.185096e-06) (1.154655e-03 -3.632147e-05 9.557731e-05))
