# Forces      
# CofR        : (0.000000e+00 0.000000e+00 0.000000e+00)
# Time        forces(pressure viscous)	moments(pressure viscous)
0             	((0.000000e+00 0.000000e+00 0.000000e+00) (-1.509641e-14 3.991828e-05 3.339224e-15)) ((0.000000e+00 0.000000e+00 0.000000e+00) (8.969219e-07 -1.312792e-16 -1.930425e-11))
0.012         	((-1.260977e-08 1.160942e-02 2.896310e-03) (-7.835439e-11 4.580128e-05 -2.053076e-08)) ((-1.369065e-07 9.872918e-09 -2.187450e-09) (1.321938e-06 6.777273e-15 -3.981430e-11))
0.0264        	((-1.776167e-07 -8.166518e-04 -1.893972e-04) (-2.503121e-10 4.671676e-05 -3.022897e-08)) ((9.753133e-09 -6.239710e-10 1.426240e-10) (1.479763e-06 3.209074e-12 -5.220161e-11))
0.04368       	((2.603483e-07 -2.421899e-03 -2.675353e-04) (-1.107697e-10 4.150411e-05 -2.707726e-08)) ((3.154085e-08 -9.069304e-10 5.910565e-10) (1.318240e-06 -5.184857e-12 -4.420650e-11))
0.064416      	((-6.137909e-08 -2.276199e-05 -9.760803e-05) (8.348621e-10 3.675722e-05 -1.474027e-08)) ((-1.467278e-10 -3.172586e-10 -3.129687e-11) (1.183637e-06 -9.965479e-12 -5.167291e-11))
0.0892992     	((-1.428303e-09 3.102926e-05 -5.915291e-05) (1.111773e-09 3.393229e-05 -1.310773e-08)) ((-1.260056e-09 -1.944914e-10 -3.403939e-11) (1.118963e-06 -1.605000e-12 -5.450627e-11))
0.119159      	((1.054426e-08 -3.680944e-05 -3.730971e-05) (7.965604e-10 3.133189e-05 -2.041971e-08)) ((6.833594e-10 -1.143390e-10 9.361340e-12) (1.047192e-06 3.139845e-12 -4.304502e-11))
0.154991      	((-1.808106e-08 -1.960628e-05 -2.423767e-05) (6.028779e-10 2.858012e-05 -2.361616e-08)) ((4.219719e-10 -6.928109e-11 -7.286930e-13) (9.674657e-07 2.565560e-13 -2.726993e-11))
0.197989      	((7.730637e-09 -4.723743e-06 -1.574796e-05) (3.827099e-10 2.581041e-05 -2.818089e-08)) ((1.557722e-10 -3.972759e-11 -1.024046e-12) (8.864509e-07 -5.966638e-12 -1.167940e-11))
0.249587      	((2.005958e-09 6.812073e-07 -1.055840e-05) (2.328062e-10 2.310125e-05 -3.455116e-08)) ((4.972302e-11 -2.272225e-11 -2.761090e-12) (8.056116e-07 -1.106441e-11 5.089285e-13))
0.311504      	((-2.169502e-09 3.141198e-06 -7.261739e-06) (9.434302e-11 2.053578e-05 -4.208434e-08)) ((1.420244e-11 -1.189524e-11 -2.415874e-12) (7.266093e-07 -1.500168e-11 1.753602e-11))
0.385805      	((5.609155e-10 4.332202e-06 -5.219585e-06) (-1.166074e-11 1.818034e-05 -4.992860e-08)) ((1.989891e-12 -5.201641e-12 -1.758370e-12) (6.514162e-07 -1.781868e-11 2.785136e-11))
0.474966      	((-1.270265e-10 4.925927e-06 -3.893434e-06) (5.267790e-11 1.607576e-05 -5.763709e-08)) ((-8.435797e-12 -1.155767e-12 -1.502827e-12) (5.819786e-07 -1.785126e-11 2.799003e-11))
0.581959      	((3.353467e-10 5.174852e-06 -3.088923e-06) (2.664841e-10 1.422989e-05 -6.530786e-08)) ((-1.643576e-11 1.111131e-12 -1.385930e-12) (5.192357e-07 -1.553602e-11 2.113128e-11))
0.710351      	((-9.393260e-13 5.159847e-06 -2.589265e-06) (4.150601e-10 1.263504e-05 -7.244941e-08)) ((-2.155549e-11 2.605532e-12 -1.174261e-12) (4.636530e-07 -1.342008e-11 1.328777e-11))
0.864421      	((2.715900e-10 4.976426e-06 -2.309701e-06) (4.333114e-10 1.127112e-05 -7.849967e-08)) ((-2.384891e-11 3.400601e-12 -1.247016e-12) (4.152286e-07 -1.111938e-11 5.387487e-12))
1.049306      	((3.958187e-10 4.702683e-06 -2.143669e-06) (4.333983e-10 1.010700e-05 -8.369677e-08)) ((-2.402800e-11 3.832933e-12 -1.218654e-12) (3.733164e-07 -8.960550e-12 -3.481774e-12))
1.271167      	((4.616617e-10 4.393064e-06 -2.061213e-06) (3.888990e-10 9.110027e-06 -8.882727e-08)) ((-2.305212e-11 4.013653e-12 -1.058520e-12) (3.369536e-07 -7.101643e-12 -1.127184e-11))
1.5374        	((2.993016e-10 4.070746e-06 -2.024378e-06) (2.931496e-10 8.246804e-06 -9.468792e-08)) ((-2.150035e-11 4.034661e-12 -1.013904e-12) (3.051717e-07 -5.186282e-12 -1.683059e-11))
1.85688       	((2.964360e-10 3.754056e-06 -2.021613e-06) (2.430027e-10 7.487945e-06 -1.015522e-07)) ((-1.965240e-11 3.900462e-12 -9.798188e-13) (2.771233e-07 -2.964920e-12 -2.049033e-11))
2.240256      	((3.148071e-10 3.454276e-06 -2.033131e-06) (2.113505e-10 6.813674e-06 -1.092798e-07)) ((-1.819938e-11 3.754569e-12 -9.590931e-13) (2.521718e-07 -8.889326e-13 -2.379718e-11))
2.700307      	((3.404194e-10 3.175832e-06 -2.057480e-06) (1.549318e-10 6.210903e-06 -1.177144e-07)) ((-1.694360e-11 3.574896e-12 -9.312549e-13) (2.298588e-07 1.109418e-13 -2.582606e-11))
3.252369      	((2.510517e-10 2.918273e-06 -2.083088e-06) (9.659242e-11 5.669982e-06 -1.268059e-07)) ((-1.571697e-11 3.332972e-12 -8.974994e-13) (2.098319e-07 4.048758e-16 -2.493375e-11))
3.914842      	((1.313821e-10 2.679219e-06 -2.111632e-06) (4.556255e-11 5.183355e-06 -1.366469e-07)) ((-1.448406e-11 3.088293e-12 -8.385625e-13) (1.918109e-07 2.116071e-13 -2.093346e-11))
4.709811      	((5.168429e-11 2.459503e-06 -2.137040e-06) (3.941555e-12 4.745441e-06 -1.471735e-07)) ((-1.340703e-11 2.871263e-12 -7.460586e-13) (1.755891e-07 1.331914e-12 -1.854226e-11))
5.663773      	((-3.992487e-11 2.259872e-06 -2.159778e-06) (-1.122205e-11 4.352242e-06 -1.583632e-07)) ((-1.255462e-11 2.645954e-12 -6.583037e-13) (1.610194e-07 1.934471e-12 -2.038758e-11))
6.808528      	((-9.250292e-11 2.080126e-06 -2.176493e-06) (-8.307930e-12 4.000160e-06 -1.702020e-07)) ((-1.189172e-11 2.420098e-12 -5.664890e-13) (1.479713e-07 1.867700e-12 -2.310197e-11))
8.182233      	((-1.187405e-10 1.919642e-06 -2.188155e-06) (-1.379102e-11 3.685145e-06 -1.826935e-07)) ((-1.137089e-11 2.235248e-12 -4.846750e-13) (1.362980e-07 1.899641e-12 -2.516515e-11))
9.83068       	((-5.521734e-11 1.777547e-06 -2.194692e-06) (-3.595409e-11 3.402731e-06 -1.959093e-07)) ((-1.098114e-11 2.105919e-12 -4.393745e-13) (1.258356e-07 1.814585e-12 -2.501010e-11))
11.808816     	((-1.306491e-10 1.652110e-06 -2.196956e-06) (-7.752946e-11 3.148695e-06 -2.099524e-07)) ((-1.070489e-11 1.981175e-12 -4.280663e-13) (1.164263e-07 1.749641e-12 -2.257950e-11))
14.182579     	((-3.926526e-10 1.542309e-06 -2.195675e-06) (-1.217115e-10 2.919663e-06 -2.248705e-07)) ((-1.053638e-11 1.836817e-12 -4.214261e-13) (1.079419e-07 2.548992e-12 -1.906453e-11))
17.031095     	((-4.192969e-10 1.447619e-06 -2.190772e-06) (-1.501384e-10 2.713075e-06 -2.406369e-07)) ((-1.049637e-11 1.704761e-12 -4.218332e-13) (1.002834e-07 3.648551e-12 -1.406065e-11))
20.449314     	((-3.918222e-10 1.368239e-06 -2.182636e-06) (-1.689920e-10 2.527028e-06 -2.571329e-07)) ((-1.062093e-11 1.575350e-12 -4.338167e-13) (9.338036e-08 4.564029e-12 -8.240577e-12))
24.551176     	((-3.401752e-10 1.303277e-06 -2.172130e-06) (-1.773232e-10 2.360113e-06 -2.741416e-07)) ((-1.090753e-11 1.433567e-12 -4.615095e-13) (8.718372e-08 5.158161e-12 -3.155114e-12))
29.473411     	((-1.893206e-10 1.252302e-06 -2.157446e-06) (-1.702014e-10 2.211213e-06 -2.913973e-07)) ((-1.134873e-11 1.312269e-12 -5.016309e-13) (8.165439e-08 5.200986e-12 9.899027e-13))
35.380094     	((-5.692969e-11 1.214640e-06 -2.139995e-06) (-1.596626e-10 2.079249e-06 -3.086235e-07)) ((-1.192819e-11 1.191348e-12 -5.495767e-13) (7.675484e-08 5.090119e-12 5.249874e-12))
42.468112     	((9.486946e-11 1.189987e-06 -2.118727e-06) (-1.439247e-10 1.963149e-06 -3.255319e-07)) ((-1.266193e-11 1.089910e-12 -6.065495e-13) (7.244961e-08 4.558927e-12 1.051040e-11))
50.973735     	((3.334449e-10 1.177060e-06 -2.094684e-06) (-1.226086e-10 1.861913e-06 -3.418750e-07)) ((-1.354479e-11 9.955422e-13 -6.783357e-13) (6.870734e-08 2.866104e-12 1.669013e-11))
61.180482     	((5.714337e-10 1.175617e-06 -2.068018e-06) (-1.020217e-10 1.774692e-06 -3.574144e-07)) ((-1.459608e-11 9.168836e-13 -7.589631e-13) (6.550357e-08 3.056488e-13 2.340469e-11))
73.428578     	((8.591411e-10 1.184053e-06 -2.039893e-06) (-7.925096e-11 1.700710e-06 -3.719803e-07)) ((-1.578974e-11 8.456109e-13 -8.516483e-13) (6.281687e-08 -3.208846e-12 2.970717e-11))
88.126294     	((1.120762e-09 1.199906e-06 -2.009426e-06) (-5.540650e-11 1.639164e-06 -3.855845e-07)) ((-1.702889e-11 7.975976e-13 -9.546626e-13) (6.061658e-08 -7.201258e-12 3.554965e-11))
105.763553    	((1.469319e-09 1.221118e-06 -1.977427e-06) (-1.960057e-11 1.589126e-06 -3.980830e-07)) ((-1.824251e-11 7.847861e-13 -1.046611e-12) (5.885757e-08 -1.102437e-11 4.068684e-11))
126.472712    	((1.830810e-09 1.244312e-06 -1.943115e-06) (2.577571e-11 1.549631e-06 -4.088475e-07)) ((-1.927677e-11 7.961505e-13 -1.132067e-12) (5.748932e-08 -1.481506e-11 4.444944e-11))
150.234301    	((2.203034e-09 1.265155e-06 -1.906737e-06) (8.756435e-11 1.518736e-06 -4.172679e-07)) ((-2.005761e-11 8.208961e-13 -1.194792e-12) (5.642449e-08 -1.907166e-11 4.623399e-11))
177.035517    	((2.542372e-09 1.280533e-06 -1.867417e-06) (1.636305e-10 1.494140e-06 -4.232342e-07)) ((-2.064110e-11 8.480916e-13 -1.235194e-12) (5.557098e-08 -2.365107e-11 4.668834e-11))
206.874735    	((2.832938e-09 1.290031e-06 -1.826665e-06) (2.511137e-10 1.473873e-06 -4.270192e-07)) ((-2.107273e-11 8.746956e-13 -1.265552e-12) (5.486742e-08 -2.793562e-11 4.632360e-11))
237.312924    	((3.066706e-09 1.296265e-06 -1.787940e-06) (3.453585e-10 1.457218e-06 -4.293648e-07)) ((-2.139600e-11 9.040373e-13 -1.294429e-12) (5.429226e-08 -3.189887e-11 4.528476e-11))
267.813963    	((3.180160e-09 1.299187e-06 -1.752109e-06) (4.363177e-10 1.443131e-06 -4.309343e-07)) ((-2.161668e-11 9.493580e-13 -1.316317e-12) (5.381254e-08 -3.511062e-11 4.386175e-11))
298.354504    	((3.241165e-09 1.300710e-06 -1.719240e-06) (5.168883e-10 1.431201e-06 -4.320950e-07)) ((-2.176708e-11 1.004174e-12 -1.335659e-12) (5.341138e-08 -3.749048e-11 4.209684e-11))
328.919054    	((3.230832e-09 1.301475e-06 -1.689014e-06) (5.857409e-10 1.421073e-06 -4.330403e-07)) ((-2.186627e-11 1.061561e-12 -1.352269e-12) (5.307366e-08 -3.912913e-11 3.996599e-11))
359.503737    	((3.185806e-09 1.301735e-06 -1.661404e-06) (6.420271e-10 1.412462e-06 -4.338560e-07)) ((-2.193429e-11 1.117632e-12 -1.365324e-12) (5.278821e-08 -4.006439e-11 3.758692e-11))
390.107767    	((3.102001e-09 1.301651e-06 -1.636330e-06) (6.809225e-10 1.405125e-06 -4.345781e-07)) ((-2.198241e-11 1.170450e-12 -1.375627e-12) (5.254604e-08 -4.033585e-11 3.530099e-11))
420.729375    	((2.996253e-09 1.301310e-06 -1.613877e-06) (7.054063e-10 1.398850e-06 -4.352328e-07)) ((-2.201519e-11 1.219329e-12 -1.383972e-12) (5.233979e-08 -4.008469e-11 3.313551e-11))
451.366174    	((2.876206e-09 1.300869e-06 -1.593737e-06) (7.209510e-10 1.393471e-06 -4.358333e-07)) ((-2.203788e-11 1.263898e-12 -1.390507e-12) (5.216347e-08 -3.942977e-11 3.105810e-11))
482.01608     	((2.747621e-09 1.300369e-06 -1.575623e-06) (7.286658e-10 1.388852e-06 -4.363871e-07)) ((-2.205405e-11 1.304766e-12 -1.396367e-12) (5.201232e-08 -3.853583e-11 2.905236e-11))
512.677354    	((2.601401e-09 1.299839e-06 -1.559197e-06) (7.286198e-10 1.384876e-06 -4.368936e-07)) ((-2.206630e-11 1.342863e-12 -1.401495e-12) (5.188243e-08 -3.738314e-11 2.706914e-11))
543.348498    	((2.451168e-09 1.299327e-06 -1.544228e-06) (7.217855e-10 1.381447e-06 -4.373504e-07)) ((-2.207504e-11 1.378044e-12 -1.405578e-12) (5.177069e-08 -3.599916e-11 2.516034e-11))
574.028216    	((2.299652e-09 1.298840e-06 -1.530640e-06) (7.087387e-10 1.378485e-06 -4.377605e-07)) ((-2.208208e-11 1.410642e-12 -1.409019e-12) (5.167440e-08 -3.450224e-11 2.340682e-11))
604.715392    	((2.147828e-09 1.298379e-06 -1.518352e-06) (6.905585e-10 1.375921e-06 -4.381273e-07)) ((-2.208745e-11 1.440306e-12 -1.412004e-12) (5.159123e-08 -3.288742e-11 2.174370e-11))
635.409062    	((2.000618e-09 1.297942e-06 -1.507285e-06) (6.694651e-10 1.373697e-06 -4.384543e-07)) ((-2.209142e-11 1.467453e-12 -1.414632e-12) (5.151923e-08 -3.119428e-11 2.013575e-11))
666.108385    	((1.854825e-09 1.297534e-06 -1.497333e-06) (6.459570e-10 1.371765e-06 -4.387441e-07)) ((-2.209435e-11 1.491689e-12 -1.416787e-12) (5.145679e-08 -2.946279e-11 1.861259e-11))
696.812629    	((1.719779e-09 1.297152e-06 -1.488386e-06) (6.208316e-10 1.370083e-06 -4.390004e-07)) ((-2.209672e-11 1.513634e-12 -1.418800e-12) (5.140254e-08 -2.773552e-11 1.717265e-11))
727.521163    	((1.590884e-09 1.296801e-06 -1.480332e-06) (5.946731e-10 1.368617e-06 -4.392262e-07)) ((-2.209853e-11 1.533453e-12 -1.420767e-12) (5.135532e-08 -2.602645e-11 1.583713e-11))
758.233435    	((1.473153e-09 1.296477e-06 -1.473113e-06) (5.684670e-10 1.367338e-06 -4.394253e-07)) ((-2.209974e-11 1.551276e-12 -1.422478e-12) (5.131415e-08 -2.436766e-11 1.460522e-11))
788.948969    	((1.364361e-09 1.296184e-06 -1.466642e-06) (5.427126e-10 1.366219e-06 -4.396002e-07)) ((-2.210067e-11 1.567480e-12 -1.423912e-12) (5.127821e-08 -2.278860e-11 1.347407e-11))
819.667353    	((1.269345e-09 1.295921e-06 -1.460855e-06) (5.180779e-10 1.365242e-06 -4.397537e-07)) ((-2.210123e-11 1.581923e-12 -1.425183e-12) (5.124682e-08 -2.130664e-11 1.245022e-11))
850.388227    	((1.183088e-09 1.295680e-06 -1.455674e-06) (4.943758e-10 1.364386e-06 -4.398880e-07)) ((-2.210186e-11 1.594894e-12 -1.426315e-12) (5.121937e-08 -1.993327e-11 1.154916e-11))
881.111281    	((1.106661e-09 1.295462e-06 -1.451046e-06) (4.726487e-10 1.363636e-06 -4.400055e-07)) ((-2.210236e-11 1.606572e-12 -1.427248e-12) (5.119533e-08 -1.867189e-11 1.073667e-11))
911.836246    	((1.039239e-09 1.295267e-06 -1.446910e-06) (4.527617e-10 1.362979e-06 -4.401082e-07)) ((-2.210278e-11 1.616992e-12 -1.428047e-12) (5.117425e-08 -1.752565e-11 1.000360e-11))
942.562886    	((9.799012e-10 1.295092e-06 -1.443229e-06) (4.347046e-10 1.362401e-06 -4.401981e-07)) ((-2.210307e-11 1.626288e-12 -1.428730e-12) (5.115577e-08 -1.648880e-11 9.344556e-12))
973.290997    	((9.283129e-10 1.294932e-06 -1.439939e-06) (4.185200e-10 1.361894e-06 -4.402767e-07)) ((-2.210326e-11 1.634566e-12 -1.429319e-12) (5.113954e-08 -1.555743e-11 8.756965e-12))
1004.020403   	((8.836870e-10 1.294792e-06 -1.437014e-06) (4.041358e-10 1.361448e-06 -4.403454e-07)) ((-2.210348e-11 1.641964e-12 -1.429841e-12) (5.112528e-08 -1.472733e-11 8.233101e-12))
1034.750946   	((8.450874e-10 1.294664e-06 -1.434406e-06) (3.914293e-10 1.361056e-06 -4.404055e-07)) ((-2.210366e-11 1.648605e-12 -1.430310e-12) (5.111274e-08 -1.399190e-11 7.769089e-12))
1065.482492   	((8.101971e-10 1.294551e-06 -1.432089e-06) (3.801417e-10 1.360711e-06 -4.404578e-07)) ((-2.210387e-11 1.654505e-12 -1.430721e-12) (5.110172e-08 -1.333731e-11 7.357537e-12))
1096.214922   	((7.806024e-10 1.294451e-06 -1.430027e-06) (3.702642e-10 1.360407e-06 -4.405034e-07)) ((-2.210405e-11 1.659790e-12 -1.431080e-12) (5.109203e-08 -1.276063e-11 6.991004e-12))
1126.94813    	((7.554732e-10 1.294359e-06 -1.428193e-06) (3.617246e-10 1.360140e-06 -4.405434e-07)) ((-2.210417e-11 1.664523e-12 -1.431396e-12) (5.108348e-08 -1.225802e-11 6.664963e-12))
1157.682025   	((7.325881e-10 1.294277e-06 -1.426560e-06) (3.542629e-10 1.359904e-06 -4.405784e-07)) ((-2.210431e-11 1.668713e-12 -1.431674e-12) (5.107595e-08 -1.181409e-11 6.374477e-12))
1188.416527   	((7.128162e-10 1.294205e-06 -1.425114e-06) (3.477460e-10 1.359695e-06 -4.406090e-07)) ((-2.210444e-11 1.672423e-12 -1.431914e-12) (5.106931e-08 -1.142278e-11 6.117869e-12))
1219.151565   	((6.951556e-10 1.294140e-06 -1.423829e-06) (3.420907e-10 1.359512e-06 -4.406357e-07)) ((-2.210461e-11 1.675753e-12 -1.432123e-12) (5.106346e-08 -1.107907e-11 5.888177e-12))
1249.887076   	((6.796072e-10 1.294083e-06 -1.422690e-06) (3.372053e-10 1.359350e-06 -4.406591e-07)) ((-2.210478e-11 1.678706e-12 -1.432304e-12) (5.105829e-08 -1.077601e-11 5.680102e-12))
1280.623006   	((6.654480e-10 1.294032e-06 -1.421678e-06) (3.329271e-10 1.359207e-06 -4.406796e-07)) ((-2.210491e-11 1.681329e-12 -1.432468e-12) (5.105373e-08 -1.050773e-11 5.493502e-12))
1311.359304   	((6.526417e-10 1.293986e-06 -1.420781e-06) (3.291447e-10 1.359081e-06 -4.406975e-07)) ((-2.210503e-11 1.683650e-12 -1.432608e-12) (5.104971e-08 -1.026949e-11 5.326909e-12))
1342.095928   	((6.410438e-10 1.293946e-06 -1.419985e-06) (3.257831e-10 1.358969e-06 -4.407132e-07)) ((-2.210515e-11 1.685710e-12 -1.432735e-12) (5.104615e-08 -1.005754e-11 5.177658e-12))
1372.832839   	((6.304072e-10 1.293909e-06 -1.419280e-06) (3.227752e-10 1.358871e-06 -4.407269e-07)) ((-2.210526e-11 1.687525e-12 -1.432848e-12) (5.104301e-08 -9.867757e-12 5.043878e-12))
1403.570004   	((6.206467e-10 1.293877e-06 -1.418654e-06) (3.200639e-10 1.358784e-06 -4.407389e-07)) ((-2.210537e-11 1.689135e-12 -1.432948e-12) (5.104024e-08 -9.697121e-12 4.923941e-12))
1434.307393   	((6.117827e-10 1.293848e-06 -1.418100e-06) (3.176088e-10 1.358707e-06 -4.407494e-07)) ((-2.210547e-11 1.690555e-12 -1.433034e-12) (5.103779e-08 -9.543272e-12 4.816183e-12))
1465.04498    	((6.035974e-10 1.293823e-06 -1.417609e-06) (3.153708e-10 1.358639e-06 -4.407585e-07)) ((-2.210557e-11 1.691813e-12 -1.433114e-12) (5.103563e-08 -9.404018e-12 4.719403e-12))
1495.782741   	((5.962960e-10 1.293801e-06 -1.417173e-06) (3.133285e-10 1.358579e-06 -4.407665e-07)) ((-2.210566e-11 1.692923e-12 -1.433182e-12) (5.103372e-08 -9.277487e-12 4.632288e-12))
1526.520655   	((5.894823e-10 1.293781e-06 -1.416788e-06) (3.114611e-10 1.358526e-06 -4.407735e-07)) ((-2.210574e-11 1.693904e-12 -1.433244e-12) (5.103203e-08 -9.162636e-12 4.553946e-12))
1557.258704   	((5.832270e-10 1.293763e-06 -1.416446e-06) (3.097453e-10 1.358480e-06 -4.407797e-07)) ((-2.210581e-11 1.694770e-12 -1.433298e-12) (5.103053e-08 -9.057963e-12 4.483642e-12))
1587.996873   	((5.776326e-10 1.293748e-06 -1.416145e-06) (3.081683e-10 1.358438e-06 -4.407850e-07)) ((-2.210587e-11 1.695532e-12 -1.433347e-12) (5.102921e-08 -8.962749e-12 4.420533e-12))
1618.735147   	((5.725265e-10 1.293734e-06 -1.415877e-06) (3.067259e-10 1.358402e-06 -4.407898e-07)) ((-2.210593e-11 1.696209e-12 -1.433388e-12) (5.102805e-08 -8.876224e-12 4.363775e-12))
1649.473514   	((5.678608e-10 1.293721e-06 -1.415639e-06) (3.054039e-10 1.358369e-06 -4.407939e-07)) ((-2.210599e-11 1.696807e-12 -1.433425e-12) (5.102702e-08 -8.797556e-12 4.312741e-12))
1680.211962   	((5.637045e-10 1.293710e-06 -1.415430e-06) (3.042000e-10 1.358341e-06 -4.407975e-07)) ((-2.210603e-11 1.697332e-12 -1.433458e-12) (5.102610e-08 -8.726243e-12 4.266925e-12))
1710.950483   	((5.600060e-10 1.293701e-06 -1.415245e-06) (3.031020e-10 1.358316e-06 -4.408007e-07)) ((-2.210608e-11 1.697799e-12 -1.433487e-12) (5.102530e-08 -8.661727e-12 4.225772e-12))
1741.689066   	((5.566624e-10 1.293692e-06 -1.415080e-06) (3.021086e-10 1.358293e-06 -4.408035e-07)) ((-2.210612e-11 1.698212e-12 -1.433512e-12) (5.102458e-08 -8.603471e-12 4.188885e-12))
1772.427706   	((5.536247e-10 1.293684e-06 -1.414932e-06) (3.012112e-10 1.358273e-06 -4.408059e-07)) ((-2.210616e-11 1.698583e-12 -1.433534e-12) (5.102395e-08 -8.550958e-12 4.155855e-12))
1803.166395   	((5.510153e-10 1.293678e-06 -1.414804e-06) (3.004018e-10 1.358256e-06 -4.408081e-07)) ((-2.210619e-11 1.698903e-12 -1.433555e-12) (5.102339e-08 -8.503884e-12 4.126271e-12))
