# Forces      
# CofR        : (0.000000e+00 0.000000e+00 0.000000e+00)
# Time        forces(pressure viscous)	moments(pressure viscous)
0             	((0.000000e+00 0.000000e+00 0.000000e+00) (-4.997129e-13 7.996157e-04 4.003264e-14)) ((0.000000e+00 0.000000e+00 0.000000e+00) (1.796654e-05 -2.989774e-15 -3.879766e-10))
0.012         	((8.422638e-10 2.322243e-01 5.687336e-02) (-4.543787e-10 9.148712e-04 -4.406692e-06)) ((-2.731607e-06 1.976334e-07 -4.324964e-08) (2.654717e-05 -2.961259e-11 -6.757533e-10))
0.0264        	((-5.250115e-06 -2.409854e-02 -6.752476e-03) (-4.730673e-09 9.254248e-04 -6.842281e-06)) ((2.718167e-07 -1.587958e-08 2.258352e-09) (2.955722e-05 -1.554803e-11 -6.093372e-10))
0.04368       	((6.919049e-06 -4.428347e-02 -6.845639e-03) (1.099206e-09 8.145575e-04 -6.818184e-06)) ((5.875998e-07 -1.867226e-08 1.309242e-08) (2.627568e-05 -3.832110e-11 -2.301297e-10))
0.064416      	((-1.147943e-06 -3.395074e-04 -3.271696e-03) (3.761386e-09 7.178969e-04 -7.535583e-06)) ((-1.916272e-09 -6.390473e-09 -1.775004e-09) (2.372153e-05 4.798886e-11 -2.245539e-10))
0.0892992     	((5.232112e-07 9.099707e-07 -2.382061e-03) (-8.810987e-10 6.607874e-04 -9.270553e-06)) ((-1.240166e-08 -3.370948e-09 -1.767984e-10) (2.245343e-05 3.100764e-10 1.557103e-10))
0.119159      	((7.460663e-07 -7.373948e-04 -1.887130e-03) (6.550792e-11 6.108786e-04 -1.095441e-05)) ((1.629627e-08 -1.803452e-09 3.675706e-10) (2.107733e-05 2.732018e-10 6.302472e-10))
0.154991      	((-4.309448e-07 -2.092074e-04 -1.603140e-03) (-1.757058e-08 5.603948e-04 -1.253110e-05)) ((8.854467e-09 -8.610149e-10 1.259513e-11) (1.962699e-05 1.096255e-10 9.619693e-10))
0.197989      	((-2.154048e-07 4.297506e-06 -1.407295e-03) (-4.804008e-08 5.124778e-04 -1.417345e-05)) ((5.712138e-09 -2.773666e-10 -1.879955e-11) (1.821138e-05 4.818464e-11 1.186365e-09))
0.249587      	((-3.667015e-07 7.813745e-05 -1.285871e-03) (-6.548683e-08 4.687283e-04 -1.594908e-05)) ((4.573230e-09 3.399102e-11 -2.373662e-11) (1.686142e-05 8.238694e-11 1.286145e-09))
0.311504      	((-1.975217e-07 1.218159e-04 -1.209066e-03) (-7.013838e-08 4.299258e-04 -1.778533e-05)) ((3.734277e-09 2.889046e-10 -2.882187e-11) (1.560385e-05 1.467641e-10 1.271949e-09))
0.385805      	((-2.208259e-07 1.453592e-04 -1.160219e-03) (-6.923215e-08 3.958319e-04 -1.972040e-05)) ((3.132566e-09 4.122857e-10 -2.210082e-11) (1.444926e-05 1.545511e-10 1.211539e-09))
0.474966      	((-1.514790e-07 1.568311e-04 -1.127407e-03) (-6.179549e-08 3.655909e-04 -2.179930e-05)) ((2.580556e-09 4.795391e-10 -3.109193e-11) (1.338870e-05 1.781539e-10 1.243612e-09))
0.581959      	((-1.143812e-07 1.611503e-04 -1.106546e-03) (-5.178672e-08 3.376955e-04 -2.408719e-05)) ((2.054921e-09 5.112449e-10 -3.210498e-11) (1.238631e-05 2.440090e-10 1.391947e-09))
0.710351      	((-8.007918e-08 1.605645e-04 -1.091898e-03) (-4.653060e-08 3.108867e-04 -2.662155e-05)) ((1.558753e-09 5.232003e-10 -4.134665e-11) (1.140976e-05 3.004703e-10 1.729329e-09))
0.864421      	((-8.991153e-08 1.576249e-04 -1.081696e-03) (-4.204256e-08 2.850506e-04 -2.943838e-05)) ((1.089171e-09 5.078200e-10 -5.993617e-11) (1.046190e-05 3.397641e-10 2.161775e-09))
1.049306      	((-6.526843e-08 1.542617e-04 -1.073821e-03) (-3.457563e-08 2.606592e-04 -3.255793e-05)) ((6.551243e-10 4.808208e-10 -7.616772e-11) (9.563285e-06 3.474328e-10 2.498627e-09))
1.271167      	((-3.014248e-08 1.522790e-04 -1.067414e-03) (-2.784543e-08 2.381168e-04 -3.593576e-05)) ((2.202154e-10 4.446185e-10 -9.530356e-11) (8.730485e-06 2.924180e-10 2.487495e-09))
1.5374        	((-2.750444e-08 1.527415e-04 -1.060993e-03) (-1.918733e-08 2.176510e-04 -3.950449e-05)) ((-2.201630e-10 3.968879e-10 -1.234549e-10) (7.972590e-06 2.044787e-10 2.243663e-09))
1.85688       	((-5.156960e-08 1.562091e-04 -1.054216e-03) (-1.308502e-08 1.993941e-04 -4.315559e-05)) ((-6.990348e-10 3.485066e-10 -1.380082e-10) (7.294908e-06 8.496347e-11 2.078754e-09))
2.240256      	((-1.022700e-07 1.631035e-04 -1.045985e-03) (-1.189590e-08 1.833885e-04 -4.672216e-05)) ((-1.241368e-09 3.019794e-10 -1.604774e-10) (6.701044e-06 -4.370702e-11 1.967413e-09))
2.700307      	((-1.269527e-07 1.743158e-04 -1.036635e-03) (-1.038493e-08 1.696290e-04 -5.004964e-05)) ((-1.861792e-09 2.429351e-10 -1.956550e-10) (6.192738e-06 -1.604017e-10 1.816763e-09))
3.252369      	((-1.257992e-07 1.901441e-04 -1.025873e-03) (-6.640104e-09 1.580195e-04 -5.303565e-05)) ((-2.542578e-09 1.735510e-10 -2.395433e-10) (5.767008e-06 -1.774900e-10 1.696210e-09))
3.905328      	((-8.264592e-08 2.108276e-04 -1.013943e-03) (-3.862452e-09 1.484858e-04 -5.568528e-05)) ((-3.260297e-09 9.379904e-11 -3.005176e-10) (5.417746e-06 -1.682412e-10 1.971682e-09))
4.658819      	((-2.896252e-09 2.359299e-04 -1.001144e-03) (-3.664802e-10 1.408152e-04 -5.807534e-05)) ((-3.976433e-09 8.880514e-12 -3.798092e-10) (5.134901e-06 -2.988499e-10 2.614113e-09))
5.512334      	((3.963791e-08 2.647225e-04 -9.878454e-04) (5.337017e-09 1.346739e-04 -6.022109e-05)) ((-4.644449e-09 -9.626939e-11 -4.718191e-10) (4.906532e-06 -4.610225e-10 3.521337e-09))
6.465105      	((1.076775e-07 2.966070e-04 -9.737270e-04) (7.864082e-09 1.297970e-04 -6.200726e-05)) ((-5.211148e-09 -2.076786e-10 -5.703213e-10) (4.722978e-06 -6.531514e-10 4.170031e-09))
7.448072      	((1.742086e-07 3.300631e-04 -9.587462e-04) (9.682021e-09 1.262010e-04 -6.321015e-05)) ((-5.648365e-09 -3.211360e-10 -6.490928e-10) (4.583492e-06 -8.618323e-10 4.666636e-09))
8.420674      	((2.200555e-07 3.607546e-04 -9.416325e-04) (1.445351e-08 1.235959e-04 -6.379486e-05)) ((-6.020889e-09 -4.232336e-10 -7.171597e-10) (4.478782e-06 -1.067858e-09 4.948648e-09))
9.383784      	((2.312794e-07 3.873420e-04 -9.218595e-04) (1.787513e-08 1.215805e-04 -6.384133e-05)) ((-6.395098e-09 -5.193065e-10 -7.872430e-10) (4.397875e-06 -1.227980e-09 4.969467e-09))
10.340441     	((2.416857e-07 4.087339e-04 -9.007920e-04) (1.782396e-08 1.198729e-04 -6.356065e-05)) ((-6.757323e-09 -6.083676e-10 -8.516813e-10) (4.331323e-06 -1.340298e-09 4.951173e-09))
11.295149     	((2.598291e-07 4.253562e-04 -8.800333e-04) (1.187375e-08 1.184192e-04 -6.311353e-05)) ((-7.116825e-09 -6.827060e-10 -9.155005e-10) (4.276546e-06 -1.378236e-09 5.183945e-09))
12.25101      	((3.576054e-07 4.348551e-04 -8.582039e-04) (7.373972e-09 1.171641e-04 -6.257120e-05)) ((-7.444384e-09 -7.237872e-10 -9.736137e-10) (4.232203e-06 -1.369092e-09 5.405166e-09))
13.208658     	((4.628472e-07 4.381994e-04 -8.368445e-04) (6.679086e-09 1.159904e-04 -6.199325e-05)) ((-7.686436e-09 -7.273277e-10 -1.018004e-09) (4.194579e-06 -1.355799e-09 5.482477e-09))
14.167384     	((4.481787e-07 4.368180e-04 -8.171347e-04) (3.226195e-09 1.148498e-04 -6.141579e-05)) ((-7.864319e-09 -7.086209e-10 -1.045128e-09) (4.161762e-06 -1.351473e-09 5.759887e-09))
15.126405     	((4.246531e-07 4.318371e-04 -8.007596e-04) (-6.628808e-10 1.137713e-04 -6.087244e-05)) ((-7.952812e-09 -6.830793e-10 -1.050091e-09) (4.133560e-06 -1.336663e-09 5.937768e-09))
16.085848     	((3.639558e-07 4.251954e-04 -7.864830e-04) (-9.978807e-10 1.127467e-04 -6.040342e-05)) ((-7.979363e-09 -6.604838e-10 -1.038379e-09) (4.107774e-06 -1.328826e-09 5.807658e-09))
17.046445     	((2.985300e-07 4.190158e-04 -7.714309e-04) (-2.431810e-09 1.117566e-04 -6.000493e-05)) ((-7.996751e-09 -6.312310e-10 -1.017754e-09) (4.083046e-06 -1.287365e-09 5.735543e-09))
18.008514     	((4.011660e-07 4.147910e-04 -7.576613e-04) (-2.117696e-09 1.108426e-04 -5.963105e-05)) ((-8.007860e-09 -6.121219e-10 -1.000876e-09) (4.060786e-06 -1.347066e-09 5.758139e-09))
18.972038     	((4.293075e-07 4.108364e-04 -7.464474e-04) (3.947820e-09 1.100147e-04 -5.929593e-05)) ((-7.970410e-09 -6.032723e-10 -9.903379e-10) (4.040129e-06 -1.532980e-09 5.577471e-09))
19.93705      	((3.680457e-07 4.073607e-04 -7.362790e-04) (7.258188e-09 1.092515e-04 -5.901668e-05)) ((-7.931292e-09 -5.963857e-10 -9.835589e-10) (4.020251e-06 -1.590783e-09 5.329627e-09))
20.903663     	((3.703170e-07 4.040590e-04 -7.255342e-04) (8.564286e-09 1.085351e-04 -5.878364e-05)) ((-7.892215e-09 -5.851700e-10 -9.783978e-10) (4.000873e-06 -1.607236e-09 5.135844e-09))
21.871969     	((4.084418e-07 4.014660e-04 -7.145909e-04) (1.020062e-08 1.078563e-04 -5.858318e-05)) ((-7.865555e-09 -5.732501e-10 -9.743694e-10) (3.981804e-06 -1.683318e-09 5.015172e-09))
22.841921     	((4.484358e-07 3.995350e-04 -7.041020e-04) (1.191616e-08 1.072201e-04 -5.840975e-05)) ((-7.844731e-09 -5.635925e-10 -9.723602e-10) (3.963262e-06 -1.787507e-09 4.919511e-09))
23.81343      	((4.843994e-07 3.978059e-04 -6.939292e-04) (1.336919e-08 1.066240e-04 -5.825976e-05)) ((-7.825390e-09 -5.520610e-10 -9.713287e-10) (3.945344e-06 -1.842685e-09 4.827127e-09))
24.786458     	((5.512905e-07 3.959530e-04 -6.839784e-04) (1.499586e-08 1.060537e-04 -5.813561e-05)) ((-7.809147e-09 -5.342703e-10 -9.712656e-10) (3.927682e-06 -1.905513e-09 4.778743e-09))
25.760914     	((5.897193e-07 3.938866e-04 -6.740046e-04) (1.759298e-08 1.054954e-04 -5.803772e-05)) ((-7.797283e-09 -5.156249e-10 -9.714796e-10) (3.909963e-06 -1.995710e-09 4.719198e-09))
26.735982     	((6.179619e-07 3.921016e-04 -6.644593e-04) (1.957203e-08 1.049562e-04 -5.795011e-05)) ((-7.801336e-09 -4.993593e-10 -9.713192e-10) (3.892976e-06 -2.133191e-09 4.719985e-09))
27.711318     	((6.413873e-07 3.903732e-04 -6.552675e-04) (2.197151e-08 1.044450e-04 -5.785766e-05)) ((-7.816396e-09 -4.843918e-10 -9.704404e-10) (3.877461e-06 -2.316017e-09 4.687774e-09))
28.687103     	((6.879718e-07 3.887850e-04 -6.465302e-04) (2.573489e-08 1.039672e-04 -5.775746e-05)) ((-7.836759e-09 -4.674919e-10 -9.692590e-10) (3.863723e-06 -2.546618e-09 4.569494e-09))
29.663426     	((7.520391e-07 3.872581e-04 -6.378726e-04) (3.148793e-08 1.035193e-04 -5.764957e-05)) ((-7.861244e-09 -4.506223e-10 -9.679149e-10) (3.851619e-06 -2.845939e-09 4.373444e-09))
30.640361     	((7.951905e-07 3.858952e-04 -6.296039e-04) (3.755777e-08 1.030997e-04 -5.753922e-05)) ((-7.883311e-09 -4.360835e-10 -9.669195e-10) (3.840740e-06 -3.161874e-09 4.229544e-09))
31.617916     	((7.749623e-07 3.844616e-04 -6.217784e-04) (4.077591e-08 1.027047e-04 -5.743681e-05)) ((-7.893370e-09 -4.243284e-10 -9.659913e-10) (3.830526e-06 -3.398599e-09 4.181279e-09))
32.596095     	((7.951496e-07 3.829732e-04 -6.139501e-04) (4.298068e-08 1.023265e-04 -5.734920e-05)) ((-7.892110e-09 -4.107411e-10 -9.653957e-10) (3.820515e-06 -3.589227e-09 4.122194e-09))
33.574942     	((7.926412e-07 3.814118e-04 -6.061371e-04) (4.629404e-08 1.019574e-04 -5.727645e-05)) ((-7.885002e-09 -3.972382e-10 -9.648983e-10) (3.810474e-06 -3.741275e-09 3.928858e-09))
34.55451      	((8.082220e-07 3.799959e-04 -5.985804e-04) (5.093834e-08 1.015987e-04 -5.720909e-05)) ((-7.880093e-09 -3.839526e-10 -9.640457e-10) (3.800602e-06 -3.877864e-09 3.649941e-09))
35.534805     	((8.180740e-07 3.785604e-04 -5.913029e-04) (5.539608e-08 1.012490e-04 -5.714715e-05)) ((-7.868984e-09 -3.698930e-10 -9.633335e-10) (3.790786e-06 -4.046171e-09 3.386980e-09))
36.515824     	((8.408021e-07 3.770969e-04 -5.841516e-04) (5.970660e-08 1.009032e-04 -5.709058e-05)) ((-7.858640e-09 -3.564251e-10 -9.627871e-10) (3.780869e-06 -4.232832e-09 3.163194e-09))
37.497625     	((8.593286e-07 3.758618e-04 -5.773223e-04) (6.369293e-08 1.005660e-04 -5.703192e-05)) ((-7.854906e-09 -3.444471e-10 -9.631126e-10) (3.771234e-06 -4.401746e-09 3.002731e-09))
38.480221     	((9.160113e-07 3.749698e-04 -5.709036e-04) (6.789745e-08 1.002481e-04 -5.696225e-05)) ((-7.860764e-09 -3.334989e-10 -9.639595e-10) (3.762515e-06 -4.541509e-09 2.863207e-09))
39.463621     	((9.608112e-07 3.740986e-04 -5.647564e-04) (7.233794e-08 9.995209e-05 -5.688145e-05)) ((-7.866031e-09 -3.214545e-10 -9.648688e-10) (3.754777e-06 -4.670490e-09 2.717923e-09))
40.447838     	((1.052501e-06 3.730607e-04 -5.586858e-04) (7.800192e-08 9.967005e-05 -5.680088e-05)) ((-7.858913e-09 -3.074177e-10 -9.654728e-10) (3.747395e-06 -4.862482e-09 2.579252e-09))
41.432884     	((1.118537e-06 3.719418e-04 -5.525697e-04) (8.415377e-08 9.939451e-05 -5.673265e-05)) ((-7.841402e-09 -2.947486e-10 -9.665699e-10) (3.739688e-06 -5.068202e-09 2.485051e-09))
42.418756     	((1.198111e-06 3.709100e-04 -5.466866e-04) (9.000381e-08 9.912341e-05 -5.668144e-05)) ((-7.820496e-09 -2.831280e-10 -9.680908e-10) (3.731380e-06 -5.261239e-09 2.447629e-09))
43.40545      	((1.318381e-06 3.698627e-04 -5.408818e-04) (9.697474e-08 9.885390e-05 -5.664541e-05)) ((-7.800270e-09 -2.706014e-10 -9.695421e-10) (3.722520e-06 -5.497865e-09 2.425762e-09))
44.393063     	((1.476907e-06 3.688866e-04 -5.351920e-04) (1.055756e-07 9.858890e-05 -5.661385e-05)) ((-7.790911e-09 -2.571403e-10 -9.702659e-10) (3.713690e-06 -5.818352e-09 2.430977e-09))
45.381661     	((1.664267e-06 3.678080e-04 -5.295297e-04) (1.157202e-07 9.832959e-05 -5.657881e-05)) ((-7.785574e-09 -2.425696e-10 -9.704137e-10) (3.705286e-06 -6.240550e-09 2.495883e-09))
46.371227     	((1.860497e-06 3.666109e-04 -5.238192e-04) (1.273466e-07 9.807425e-05 -5.653960e-05)) ((-7.780578e-09 -2.278421e-10 -9.703203e-10) (3.697260e-06 -6.739017e-09 2.617599e-09))
47.361756     	((2.063684e-06 3.656041e-04 -5.181768e-04) (1.398329e-07 9.782784e-05 -5.649411e-05)) ((-7.780410e-09 -2.137699e-10 -9.703450e-10) (3.689730e-06 -7.297649e-09 2.802885e-09))
48.353241     	((2.245601e-06 3.647544e-04 -5.127050e-04) (1.522006e-07 9.759383e-05 -5.644162e-05)) ((-7.782411e-09 -2.012965e-10 -9.705283e-10) (3.682765e-06 -7.879925e-09 3.046467e-09))
49.345662     	((2.479250e-06 3.640946e-04 -5.074293e-04) (1.653418e-07 9.737460e-05 -5.638253e-05)) ((-7.785740e-09 -1.891759e-10 -9.704205e-10) (3.676393e-06 -8.528694e-09 3.358902e-09))
50.339003     	((2.681638e-06 3.634009e-04 -5.023184e-04) (1.786006e-07 9.716744e-05 -5.631822e-05)) ((-7.787956e-09 -1.781869e-10 -9.698034e-10) (3.670453e-06 -9.202924e-09 3.716842e-09))
51.333254     	((2.912212e-06 3.626549e-04 -4.974274e-04) (1.925059e-07 9.696753e-05 -5.625082e-05)) ((-7.790236e-09 -1.678182e-10 -9.688137e-10) (3.664739e-06 -9.898607e-09 4.085719e-09))
52.328406     	((3.154536e-06 3.618698e-04 -4.926579e-04) (2.078999e-07 9.677286e-05 -5.618206e-05)) ((-7.792216e-09 -1.576272e-10 -9.675236e-10) (3.659153e-06 -1.064221e-08 4.454003e-09))
53.324449     	((3.401323e-06 3.610125e-04 -4.880901e-04) (2.244426e-07 9.658124e-05 -5.611449e-05)) ((-7.793025e-09 -1.472991e-10 -9.661896e-10) (3.653577e-06 -1.141569e-08 4.818248e-09))
54.321378     	((3.651081e-06 3.602230e-04 -4.835804e-04) (2.418709e-07 9.639409e-05 -5.604597e-05)) ((-7.796209e-09 -1.363756e-10 -9.649315e-10) (3.648089e-06 -1.222413e-08 5.183680e-09))
55.319205     	((3.915409e-06 3.594637e-04 -4.791366e-04) (2.603721e-07 9.621241e-05 -5.597500e-05)) ((-7.800079e-09 -1.251758e-10 -9.639707e-10) (3.642732e-06 -1.307357e-08 5.544631e-09))
56.317945     	((4.199907e-06 3.587976e-04 -4.747448e-04) (2.804590e-07 9.603775e-05 -5.589966e-05)) ((-7.806757e-09 -1.136764e-10 -9.630395e-10) (3.637584e-06 -1.397665e-08 5.872344e-09))
57.317618     	((4.481427e-06 3.581398e-04 -4.704052e-04) (3.020136e-07 9.586944e-05 -5.581957e-05)) ((-7.814309e-09 -1.020722e-10 -9.620708e-10) (3.632638e-06 -1.492321e-08 6.155668e-09))
58.318244     	((4.789296e-06 3.575449e-04 -4.662103e-04) (3.255481e-07 9.570714e-05 -5.573587e-05)) ((-7.822993e-09 -9.020952e-11 -9.610714e-10) (3.627864e-06 -1.592511e-08 6.388617e-09))
59.319789     	((5.117269e-06 3.569694e-04 -4.621938e-04) (3.512647e-07 9.555133e-05 -5.565019e-05)) ((-7.831020e-09 -7.834084e-11 -9.601859e-10) (3.623265e-06 -1.698833e-08 6.574584e-09))
60.3222       	((5.515001e-06 3.563534e-04 -4.581919e-04) (3.801529e-07 9.539973e-05 -5.556427e-05)) ((-7.837803e-09 -6.540223e-11 -9.592250e-10) (3.618747e-06 -1.815135e-08 6.729206e-09))
61.325455     	((5.924508e-06 3.557935e-04 -4.543451e-04) (4.117088e-07 9.525295e-05 -5.547859e-05)) ((-7.843771e-09 -5.258261e-11 -9.586022e-10) (3.614327e-06 -1.940724e-08 6.884847e-09))
62.329538     	((6.377024e-06 3.552381e-04 -4.505365e-04) (4.457214e-07 9.511208e-05 -5.539260e-05)) ((-7.848995e-09 -3.886865e-11 -9.579224e-10) (3.610060e-06 -2.077029e-08 7.061674e-09))
63.334441     	((6.907226e-06 3.547210e-04 -4.468253e-04) (4.833727e-07 9.497802e-05 -5.530641e-05)) ((-7.852596e-09 -2.387083e-11 -9.571673e-10) (3.605985e-06 -2.230269e-08 7.272187e-09))
64.34015      	((7.466190e-06 3.542061e-04 -4.431594e-04) (5.245508e-07 9.485098e-05 -5.522137e-05)) ((-7.854238e-09 -8.009734e-12 -9.566306e-10) (3.602094e-06 -2.400007e-08 7.519200e-09))
65.346648     	((8.063243e-06 3.537280e-04 -4.396117e-04) (5.686471e-07 9.473076e-05 -5.513834e-05)) ((-7.854238e-09 8.556519e-12 -9.562236e-10) (3.598376e-06 -2.584945e-08 7.828771e-09))
66.353914     	((8.727775e-06 3.532723e-04 -4.362018e-04) (6.163298e-07 9.461690e-05 -5.505795e-05)) ((-7.852309e-09 2.639609e-11 -9.557683e-10) (3.594830e-06 -2.788282e-08 8.205525e-09))
67.361928     	((9.457814e-06 3.528204e-04 -4.328394e-04) (6.685140e-07 9.450903e-05 -5.498070e-05)) ((-7.848490e-09 4.580375e-11 -9.552167e-10) (3.591468e-06 -3.013896e-08 8.645571e-09))
68.370662     	((1.027736e-05 3.523663e-04 -4.295411e-04) (7.259275e-07 9.440659e-05 -5.490652e-05)) ((-7.842659e-09 6.701277e-11 -9.543878e-10) (3.588302e-06 -3.264750e-08 9.153697e-09))
69.380079     	((1.120551e-05 3.519120e-04 -4.262933e-04) (7.893219e-07 9.430847e-05 -5.483599e-05)) ((-7.835181e-09 9.026412e-11 -9.533679e-10) (3.585305e-06 -3.544308e-08 9.746464e-09))
70.390139     	((1.224813e-05 3.514772e-04 -4.230980e-04) (8.596109e-07 9.421454e-05 -5.476951e-05)) ((-7.826711e-09 1.158060e-10 -9.521572e-10) (3.582483e-06 -3.856621e-08 1.043812e-08))
71.400802     	((1.339789e-05 3.510603e-04 -4.200117e-04) (9.372255e-07 9.412438e-05 -5.470759e-05)) ((-7.817862e-09 1.430565e-10 -9.508585e-10) (3.579818e-06 -4.204491e-08 1.124728e-08))
72.412029     	((1.464351e-05 3.506603e-04 -4.169892e-04) (1.022534e-06 9.403736e-05 -5.464943e-05)) ((-7.809817e-09 1.713423e-10 -9.494480e-10) (3.577316e-06 -4.587581e-08 1.215918e-08))
73.423786     	((1.600992e-05 3.502809e-04 -4.139844e-04) (1.116674e-06 9.395293e-05 -5.459355e-05)) ((-7.803624e-09 2.008539e-10 -9.481140e-10) (3.574993e-06 -5.006416e-08 1.313170e-08))
74.436036     	((1.754542e-05 3.498926e-04 -4.109548e-04) (1.221243e-06 9.387057e-05 -5.453861e-05)) ((-7.799425e-09 2.325696e-10 -9.466304e-10) (3.572833e-06 -5.467628e-08 1.418859e-08))
75.448745     	((1.916931e-05 3.495168e-04 -4.079865e-04) (1.335668e-06 9.378995e-05 -5.448251e-05)) ((-7.798298e-09 2.642542e-10 -9.450304e-10) (3.570851e-06 -5.968601e-08 1.534963e-08))
76.461878     	((2.095911e-05 3.491481e-04 -4.050682e-04) (1.460728e-06 9.371088e-05 -5.442505e-05)) ((-7.798430e-09 2.977550e-10 -9.432732e-10) (3.569028e-06 -6.510721e-08 1.660113e-08))
77.475408     	((2.293939e-05 3.487825e-04 -4.021205e-04) (1.598729e-06 9.363272e-05 -5.436636e-05)) ((-7.799271e-09 3.341221e-10 -9.412578e-10) (3.567308e-06 -7.103277e-08 1.793645e-08))
78.489313     	((2.506436e-05 3.484551e-04 -3.992352e-04) (1.749946e-06 9.355580e-05 -5.430726e-05)) ((-7.800022e-09 3.716507e-10 -9.389141e-10) (3.565631e-06 -7.746251e-08 1.937626e-08))
79.503569     	((2.736757e-05 3.481629e-04 -3.963784e-04) (1.915156e-06 9.347988e-05 -5.425009e-05)) ((-7.799278e-09 4.112302e-10 -9.362910e-10) (3.563874e-06 -8.441165e-08 2.092112e-08))
80.518152     	((2.987209e-05 3.478774e-04 -3.935006e-04) (2.095978e-06 9.340381e-05 -5.419668e-05)) ((-7.797171e-09 4.537069e-10 -9.334257e-10) (3.561927e-06 -9.194065e-08 2.253870e-08))
81.53304      	((3.254957e-05 3.476484e-04 -3.907175e-04) (2.294041e-06 9.332838e-05 -5.414536e-05)) ((-7.796449e-09 4.986052e-10 -9.304406e-10) (3.559880e-06 -1.001009e-07 2.415045e-08))
82.548064     	((3.543480e-05 3.474330e-04 -3.879803e-04) (2.510701e-06 9.325423e-05 -5.409465e-05)) ((-7.795253e-09 5.470979e-10 -9.273395e-10) (3.557843e-06 -1.089683e-07 2.573659e-08))
83.562765     	((3.855514e-05 3.472431e-04 -3.852834e-04) (2.745679e-06 9.318241e-05 -5.404407e-05)) ((-7.792739e-09 5.996717e-10 -9.239224e-10) (3.555905e-06 -1.185918e-07 2.739178e-08))
84.577073     	((4.191440e-05 3.470939e-04 -3.826481e-04) (2.999196e-06 9.311484e-05 -5.399470e-05)) ((-7.787633e-09 6.564419e-10 -9.202393e-10) (3.554109e-06 -1.289976e-07 2.917763e-08))
85.590913     	((4.555769e-05 3.470024e-04 -3.801007e-04) (3.272937e-06 9.305298e-05 -5.394960e-05)) ((-7.778914e-09 7.182984e-10 -9.163122e-10) (3.552423e-06 -1.402604e-07 3.112469e-08))
86.604203     	((4.949238e-05 3.469636e-04 -3.776794e-04) (3.569245e-06 9.299683e-05 -5.391104e-05)) ((-7.767105e-09 7.855192e-10 -9.121522e-10) (3.550819e-06 -1.524611e-07 3.321716e-08))
87.61686      	((5.373475e-05 3.469805e-04 -3.753717e-04) (3.891781e-06 9.294689e-05 -5.387887e-05)) ((-7.752913e-09 8.573832e-10 -9.079197e-10) (3.549363e-06 -1.656843e-07 3.535337e-08))
88.628809     	((5.832731e-05 3.470320e-04 -3.731577e-04) (4.244016e-06 9.290415e-05 -5.385354e-05)) ((-7.735988e-09 9.356554e-10 -9.034265e-10) (3.548118e-06 -1.800599e-07 3.747188e-08))
89.639973     	((6.333253e-05 3.471998e-04 -3.712137e-04) (4.630099e-06 9.286960e-05 -5.383572e-05)) ((-7.717754e-09 1.020082e-09 -8.989882e-10) (3.547136e-06 -1.957534e-07 3.956543e-08))
90.650267     	((6.882058e-05 3.474242e-04 -3.693513e-04) (5.054116e-06 9.284325e-05 -5.382649e-05)) ((-7.696783e-09 1.112558e-09 -8.946797e-10) (3.546443e-06 -2.129352e-07 4.166312e-08))
