# Forces      
# CofR        : (0.000000e+00 0.000000e+00 0.000000e+00)
# Time        forces(pressure viscous)	moments(pressure viscous)
0             	((0.000000e+00 0.000000e+00 0.000000e+00) (0.000000e+00 0.000000e+00 0.000000e+00)) ((0.000000e+00 0.000000e+00 0.000000e+00) (0.000000e+00 0.000000e+00 0.000000e+00))
0.012         	((-8.395487e-10 3.029093e-07 -4.250424e-09) (-2.842071e-11 3.371669e-09 2.114977e-11)) ((-2.236256e-11 3.607500e-13 -4.232629e-09) (6.365317e-11 2.054367e-12 -8.451761e-06))
0.0264        	((-1.383553e-09 -1.091045e-07 -2.339237e-09) (-3.296253e-11 3.679144e-09 -1.200529e-10)) ((-5.203468e-11 1.798592e-12 -1.362988e-09) (1.099790e-10 2.520646e-12 -7.400064e-06))
0.04368       	((-9.468316e-09 5.043571e-08 -5.436573e-08) (-5.133220e-11 2.430486e-09 -4.575971e-10)) ((2.113913e-11 1.856603e-12 -7.959543e-10) (8.514750e-11 3.702517e-12 -6.410688e-06))
0.064416      	((-5.585939e-09 1.381143e-08 -8.208184e-08) (-2.285555e-10 1.221375e-09 -2.998151e-10)) ((-1.001844e-11 1.528240e-12 -5.990233e-10) (3.193143e-11 1.036600e-11 -5.514585e-06))
0.0892992     	((-3.895786e-09 2.397001e-08 -1.349497e-07) (-5.275542e-10 6.265015e-10 8.021975e-10)) ((4.842438e-12 3.620126e-12 -5.128408e-10) (4.395138e-12 2.086739e-11 -4.736764e-06))
0.119159      	((1.000458e-10 1.616068e-08 -1.891191e-07) (-9.028135e-10 4.441567e-10 3.205035e-09)) ((2.979107e-12 4.864321e-12 -4.209653e-10) (-1.749842e-11 2.778813e-11 -4.081819e-06))
0.154991      	((-2.838180e-09 2.331201e-08 -2.338995e-07) (-1.236409e-09 2.072906e-10 8.472145e-09)) ((5.074161e-12 3.222290e-12 -3.484581e-10) (-2.476507e-11 3.660892e-11 -3.539205e-06))
0.197989      	((3.092343e-10 2.261356e-08 -2.768794e-07) (-1.298283e-09 7.950083e-12 1.821876e-08)) ((4.868402e-12 3.526888e-12 -2.963046e-10) (-2.865636e-11 4.532690e-11 -3.091327e-06))
0.249587      	((-2.638004e-09 2.333267e-08 -3.196066e-07) (-1.683519e-09 -2.012665e-10 3.201512e-08)) ((4.043321e-12 4.999874e-12 -2.622086e-10) (-2.782508e-11 4.813019e-11 -2.720723e-06))
0.311504      	((-1.556900e-08 3.384567e-08 -3.648693e-07) (-2.054605e-09 -3.611247e-10 4.897003e-08)) ((3.505537e-12 5.746270e-12 -2.361359e-10) (-2.821566e-11 5.715842e-11 -2.409895e-06))
0.385805      	((-1.728463e-08 3.176877e-08 -4.089257e-07) (-2.131627e-09 -6.136728e-10 6.884624e-08)) ((1.052846e-12 7.801659e-12 -2.124436e-10) (-3.183134e-11 6.605436e-11 -2.146704e-06))
0.474966      	((-2.316961e-08 4.036995e-08 -4.503924e-07) (-1.912627e-09 -1.167270e-09 9.133836e-08)) ((-7.801555e-13 8.120441e-12 -1.913179e-10) (-3.956290e-11 7.613885e-11 -1.921369e-06))
0.581959      	((-2.158232e-08 4.361531e-08 -4.988724e-07) (-1.209358e-09 -1.475166e-09 1.170344e-07)) ((-1.261805e-12 7.524904e-12 -1.749361e-10) (-3.746648e-11 7.884093e-11 -1.726088e-06))
0.710351      	((-2.724558e-08 4.597851e-08 -5.581090e-07) (-1.345703e-10 -1.164478e-09 1.470045e-07)) ((-1.947446e-12 6.339648e-12 -1.605549e-10) (-3.316504e-11 5.504276e-11 -1.554773e-06))
0.864421      	((-2.124564e-08 3.916886e-08 -6.246103e-07) (8.644841e-10 -1.010971e-09 1.821962e-07)) ((-2.416056e-12 1.999339e-12 -1.466984e-10) (-3.674930e-11 2.318176e-11 -1.403154e-06))
1.049306      	((-2.401499e-08 3.003663e-08 -6.989227e-07) (1.221595e-09 -1.981582e-09 2.230689e-07)) ((-3.706960e-12 -1.887270e-12 -1.345449e-10) (-5.032462e-11 4.182753e-12 -1.268699e-06))
1.271167      	((-2.026265e-08 2.201724e-08 -7.738643e-07) (1.081559e-09 -2.954833e-09 2.691689e-07)) ((-4.403765e-12 -4.004114e-12 -1.239529e-10) (-6.992583e-11 2.325606e-12 -1.150158e-06))
1.5374        	((-2.553948e-08 1.660351e-08 -8.404361e-07) (1.035464e-09 -3.930132e-09 3.194834e-07)) ((-3.086623e-12 -5.208171e-12 -1.140593e-10) (-8.955732e-11 1.800274e-11 -1.046835e-06))
1.85688       	((-2.305009e-08 1.553753e-08 -9.158075e-07) (1.361795e-09 -4.085295e-09 3.728605e-07)) ((-2.928451e-12 -4.727662e-12 -1.049613e-10) (-8.684444e-11 2.792162e-11 -9.577821e-07))
2.240256      	((-2.101854e-08 1.739835e-08 -1.001963e-06) (1.723483e-09 -3.002795e-09 4.288543e-07)) ((-2.608284e-12 -4.132584e-12 -9.642040e-11) (-7.180003e-11 3.923015e-11 -8.812994e-07))
2.700307      	((-1.911567e-08 2.313788e-08 -1.096330e-06) (1.838900e-09 -1.016692e-09 4.867231e-07)) ((-2.202417e-12 -4.793234e-12 -8.845293e-11) (-4.355764e-11 5.950215e-11 -8.151077e-07))
3.252369      	((-1.911843e-08 1.493439e-08 -1.201446e-06) (1.855001e-09 8.474917e-10 5.465741e-07)) ((-1.247988e-12 -7.108284e-12 -8.103799e-11) (1.363607e-12 9.355530e-11 -7.568741e-07))
3.914842      	((-2.164740e-08 6.393571e-09 -1.338816e-06) (6.401654e-10 2.308759e-09 6.089304e-07)) ((-2.061764e-13 -7.640064e-12 -7.388746e-11) (3.827608e-11 1.243701e-10 -7.046829e-07))
4.709811      	((-2.200872e-08 -3.708328e-09 -1.492262e-06) (-5.261704e-10 3.194496e-09 6.740917e-07)) ((-2.086527e-13 -8.193271e-12 -6.717815e-11) (5.905390e-11 1.329315e-10 -6.572330e-07))
5.663773      	((-2.523314e-08 -1.099741e-08 -1.657514e-06) (-1.026281e-09 2.954174e-09 7.435585e-07)) ((5.407347e-14 -8.040146e-12 -6.125406e-11) (5.903139e-11 1.210766e-10 -6.136855e-07))
6.808528      	((-2.328576e-08 -1.226004e-08 -1.828425e-06) (-3.796536e-11 1.721105e-09 8.186127e-07)) ((1.099734e-12 -8.058612e-12 -5.581215e-11) (3.432091e-11 8.673399e-11 -5.734452e-07))
8.182233      	((-2.460475e-08 -1.187329e-08 -2.000055e-06) (1.366887e-09 1.485258e-10 9.020461e-07)) ((2.607968e-12 -8.307459e-12 -5.124031e-11) (-4.724249e-11 3.367723e-11 -5.360828e-07))
9.83068       	((-2.382555e-08 -8.771874e-09 -2.166502e-06) (2.893078e-09 -2.284590e-09 9.945471e-07)) ((2.689375e-12 -9.066791e-12 -4.710687e-11) (-1.277113e-10 -1.101603e-11 -5.014016e-07))
11.808816     	((-2.041858e-08 -4.442838e-09 -2.341486e-06) (2.836725e-09 -4.227696e-09 1.097110e-06)) ((2.420691e-12 -1.033019e-11 -4.337808e-11) (-1.651357e-10 -3.360263e-11 -4.693512e-07))
14.182579     	((-2.193289e-08 -1.233988e-08 -2.511067e-06) (2.879202e-09 -5.212624e-09 1.206167e-06)) ((2.092040e-12 -1.133006e-11 -3.980668e-11) (-1.562048e-10 -3.699820e-11 -4.400432e-07))
17.031095     	((-2.078752e-08 -1.267280e-08 -2.689403e-06) (2.873359e-09 -4.894045e-09 1.322211e-06)) ((1.820395e-12 -1.227183e-11 -3.658784e-11) (-9.289353e-11 -4.421147e-11 -4.136355e-07))
20.449314     	((-2.092193e-08 -1.685544e-08 -2.868894e-06) (2.660684e-09 -4.038802e-09 1.446266e-06)) ((2.529689e-12 -1.315991e-11 -3.372888e-11) (-4.324536e-11 -6.679380e-11 -3.901433e-07))
24.551176     	((-2.271054e-08 -1.743352e-08 -3.049541e-06) (2.688025e-09 -3.374427e-09 1.574278e-06)) ((3.122158e-12 -1.416134e-11 -3.127096e-11) (-8.525525e-12 -8.514004e-11 -3.694291e-07))
29.473411     	((-2.303355e-08 -1.445363e-08 -3.238582e-06) (2.337256e-09 -2.911656e-09 1.706395e-06)) ((3.315738e-12 -1.521337e-11 -2.923102e-11) (2.150744e-11 -9.310437e-11 -3.512191e-07))
35.380094     	((-2.333781e-08 -1.225623e-08 -3.435680e-06) (1.698433e-09 -2.594198e-09 1.841491e-06)) ((3.270477e-12 -1.638099e-11 -2.743646e-11) (5.173478e-11 -8.268396e-11 -3.351939e-07))
42.305763     	((-2.345787e-08 -8.538402e-09 -3.631561e-06) (6.212257e-10 -2.239333e-09 1.978924e-06)) ((3.013372e-12 -1.815655e-11 -2.579927e-11) (1.028649e-10 -6.407451e-11 -3.212338e-07))
50.250246     	((-2.258920e-08 -5.692936e-09 -3.810198e-06) (-1.737845e-10 -1.864761e-09 2.119227e-06)) ((2.587771e-12 -1.979445e-11 -2.441323e-11) (1.598833e-10 -4.643800e-11 -3.091770e-07))
59.213341     	((-2.355136e-08 -5.308753e-10 -3.979938e-06) (-1.112404e-09 -7.643673e-10 2.259842e-06)) ((2.259321e-12 -2.107534e-11 -2.329626e-11) (2.243499e-10 -3.713537e-11 -2.988749e-07))
69.194811     	((-2.189297e-08 3.364544e-09 -4.138993e-06) (-1.182006e-09 5.787394e-10 2.399682e-06)) ((2.203216e-12 -2.239635e-11 -2.238510e-11) (2.966229e-10 -4.644431e-11 -2.902285e-07))
79.375562     	((-1.802340e-08 6.631000e-09 -4.290005e-06) (-7.383767e-10 1.506920e-09 2.535297e-06)) ((2.007431e-12 -2.421428e-11 -2.154395e-11) (3.700897e-10 -7.341477e-11 -2.834119e-07))
89.55298      	((-1.515523e-08 8.810006e-09 -4.405621e-06) (5.764262e-11 2.779443e-09 2.666637e-06)) ((1.762974e-12 -2.581999e-11 -2.078954e-11) (4.361084e-10 -1.154269e-10 -2.782305e-07))
99.726895     	((-1.193754e-08 9.159866e-09 -4.495432e-06) (1.515916e-09 3.431457e-09 2.792090e-06)) ((1.600077e-12 -2.721795e-11 -2.012738e-11) (4.810142e-10 -1.739470e-10 -2.744936e-07))
109.89699     	((-9.571294e-09 9.709779e-09 -4.564338e-06) (2.864569e-09 3.639529e-09 2.912189e-06)) ((1.546952e-12 -2.867036e-11 -1.951646e-11) (4.972265e-10 -2.378743e-10 -2.720022e-07))
120.062799    	((-7.225449e-09 6.730344e-09 -4.615055e-06) (3.828220e-09 3.320091e-09 3.027614e-06)) ((1.552213e-12 -3.022678e-11 -1.904339e-11) (4.909786e-10 -2.959752e-10 -2.706031e-07))
130.224083    	((-6.122801e-09 4.012729e-09 -4.642100e-06) (4.324090e-09 3.009099e-09 3.138947e-06)) ((1.503531e-12 -3.170202e-11 -1.874300e-11) (4.683786e-10 -3.458065e-10 -2.701615e-07))
140.380493    	((-5.995921e-09 6.216529e-10 -4.654793e-06) (4.534227e-09 2.315998e-09 3.245911e-06)) ((1.472527e-12 -3.330620e-11 -1.854982e-11) (4.363620e-10 -3.848281e-10 -2.705744e-07))
150.531735    	((-6.143765e-09 -1.531910e-09 -4.653043e-06) (4.601422e-09 1.796973e-09 3.347862e-06)) ((1.584281e-12 -3.502178e-11 -1.845755e-11) (4.033522e-10 -4.118441e-10 -2.717464e-07))
160.677407    	((-7.852926e-09 -3.102691e-09 -4.637111e-06) (5.098582e-09 1.568104e-09 3.444663e-06)) ((1.718423e-12 -3.661209e-11 -1.848564e-11) (3.767400e-10 -4.292784e-10 -2.735873e-07))
170.817465    	((-9.346778e-09 -4.711374e-09 -4.610375e-06) (5.365506e-09 1.808811e-09 3.535517e-06)) ((1.862347e-12 -3.801010e-11 -1.862956e-11) (3.507444e-10 -4.365224e-10 -2.760124e-07))
180.951888    	((-1.107776e-08 -5.387217e-09 -4.570889e-06) (5.173517e-09 1.658952e-09 3.617168e-06)) ((1.904886e-12 -3.916756e-11 -1.886078e-11) (3.277348e-10 -4.356755e-10 -2.789225e-07))
190.983676    	((-1.136171e-08 -4.885600e-09 -4.523865e-06) (5.298039e-09 1.362274e-09 3.686641e-06)) ((2.079256e-12 -4.023384e-11 -1.915396e-11) (3.154860e-10 -4.315598e-10 -2.821792e-07))
200.870365    	((-1.186107e-08 -5.627280e-09 -4.469967e-06) (5.031712e-09 1.357831e-09 3.742204e-06)) ((2.296553e-12 -4.094665e-11 -1.952927e-11) (3.038781e-10 -4.289512e-10 -2.856334e-07))
210.63989     	((-1.207707e-08 -6.168017e-09 -4.414850e-06) (4.634261e-09 1.452620e-09 3.782980e-06)) ((2.384061e-12 -4.131074e-11 -1.989687e-11) (2.910315e-10 -4.245429e-10 -2.891470e-07))
220.315389    	((-1.238851e-08 -6.905108e-09 -4.357633e-06) (4.481013e-09 1.336948e-09 3.808730e-06)) ((2.449597e-12 -4.130841e-11 -2.026111e-11) (2.738275e-10 -4.195052e-10 -2.925919e-07))
229.885932    	((-1.282262e-08 -6.668190e-09 -4.299087e-06) (4.280439e-09 1.167809e-09 3.819747e-06)) ((2.480858e-12 -4.091736e-11 -2.062501e-11) (2.576570e-10 -4.130075e-10 -2.958462e-07))
239.336869    	((-1.298533e-08 -7.244386e-09 -4.234032e-06) (3.928231e-09 1.032794e-09 3.816283e-06)) ((2.487707e-12 -4.009331e-11 -2.097033e-11) (2.456724e-10 -4.022501e-10 -2.987990e-07))
