# Forces      
# CofR        : (0.000000e+00 0.000000e+00 0.000000e+00)
# Time        forces(pressure viscous)	moments(pressure viscous)
0             	((0.000000e+00 0.000000e+00 0.000000e+00) (-3.081764e-12 5.025017e-03 3.003259e-13)) ((0.000000e+00 0.000000e+00 0.000000e+00) (1.129064e-04 -1.888377e-14 -2.166982e-09))
0.012         	((8.787717e-06 1.479253e+00 3.254858e-01) (-7.596064e-09 6.414166e-03 -2.176714e-04)) ((-1.724602e-05 1.277143e-06 -2.644587e-07) (1.923475e-04 2.259410e-10 -1.565630e-09))
0.0264        	((-9.869245e-05 -3.477237e-01 -1.362209e-01) (-9.378383e-08 6.373909e-03 -3.322907e-04)) ((3.855026e-06 -2.207783e-07 3.027046e-08) (2.123960e-04 2.534223e-09 3.349850e-09))
0.04368       	((1.032188e-04 -1.539815e-01 -8.140588e-02) (-9.610010e-08 5.389819e-03 -3.279192e-04)) ((2.543573e-06 -8.891127e-08 6.299933e-08) (1.843593e-04 7.100541e-10 1.096021e-08))
0.064416      	((-1.788609e-05 -9.360416e-04 -6.139438e-02) (-5.188049e-07 4.760078e-03 -3.624247e-04)) ((1.080986e-07 -1.962348e-08 -6.248617e-09) (1.674691e-04 -1.682195e-09 1.094458e-08))
0.0892992     	((-2.726346e-05 -6.110804e-04 -5.305275e-02) (-1.414023e-06 4.377014e-03 -4.026149e-04)) ((1.411963e-07 7.309461e-09 3.179515e-09) (1.567198e-04 6.469090e-10 1.233287e-08))
0.119159      	((-4.870972e-05 7.296221e-04 -4.946448e-02) (-2.101025e-06 4.061242e-03 -4.262131e-04)) ((1.483535e-07 1.647216e-08 3.324987e-09) (1.466726e-04 6.065790e-09 2.097394e-08))
0.154991      	((-3.551415e-05 1.895050e-03 -4.715425e-02) (-2.581175e-06 3.803222e-03 -4.412600e-04)) ((1.170331e-07 1.609510e-08 7.893343e-10) (1.379330e-04 1.071382e-08 3.232369e-08))
0.197989      	((-3.834346e-05 2.358340e-03 -4.593928e-02) (-2.657187e-06 3.599018e-03 -4.564762e-04)) ((1.015264e-07 1.869302e-08 -5.033704e-09) (1.306232e-04 1.413875e-08 3.923641e-08))
0.249587      	((-1.452438e-05 2.666310e-03 -4.513223e-02) (-2.159543e-06 3.427779e-03 -4.802764e-04)) ((7.399836e-08 2.136165e-08 -4.620798e-09) (1.242683e-04 1.434885e-08 4.971523e-08))
0.311504      	((-9.394127e-06 2.908433e-03 -4.466265e-02) (-1.891322e-06 3.272802e-03 -5.158387e-04)) ((4.906584e-08 2.350270e-08 -5.122176e-09) (1.184123e-04 1.102343e-08 5.745322e-08))
0.385805      	((-8.689725e-06 3.221077e-03 -4.424666e-02) (-1.803370e-06 3.129324e-03 -5.607386e-04)) ((1.993652e-08 2.254550e-08 -7.766869e-09) (1.128799e-04 7.416190e-09 5.731784e-08))
0.474966      	((-6.391660e-06 3.620340e-03 -4.385857e-02) (-1.498812e-06 2.996517e-03 -6.121762e-04)) ((-1.002232e-08 2.304426e-08 -1.032557e-08) (1.076375e-04 4.470877e-09 5.771985e-08))
0.580717      	((-1.979356e-06 4.159605e-03 -4.345201e-02) (-1.088784e-06 2.877278e-03 -6.670346e-04)) ((-4.272522e-08 2.303300e-08 -1.323800e-08) (1.028274e-04 7.612563e-10 6.176045e-08))
0.703089      	((1.704714e-06 4.833792e-03 -4.305712e-02) (-7.163868e-07 2.774638e-03 -7.210808e-04)) ((-7.645155e-08 2.300121e-08 -1.659176e-08) (9.861668e-05 -2.384807e-09 6.820627e-08))
0.842092      	((5.812005e-06 5.649658e-03 -4.265735e-02) (-3.903849e-07 2.688317e-03 -7.721203e-04)) ((-1.106783e-07 2.186571e-08 -2.068286e-08) (9.504030e-05 -3.728287e-09 7.707465e-08))
0.997611      	((9.697945e-06 6.546442e-03 -4.220114e-02) (-2.426380e-08 2.617993e-03 -8.175918e-04)) ((-1.417092e-07 2.041415e-08 -2.520206e-08) (9.209308e-05 -4.194126e-09 9.024812e-08))
1.161215      	((1.337212e-05 7.520708e-03 -4.170496e-02) (3.948753e-07 2.562580e-03 -8.536786e-04)) ((-1.664340e-07 1.854658e-08 -2.992094e-08) (8.971029e-05 -5.404719e-09 1.047800e-07))
1.323134      	((1.903687e-05 8.434667e-03 -4.107939e-02) (7.927673e-07 2.516777e-03 -8.798479e-04)) ((-1.865427e-07 1.679325e-08 -3.365455e-08) (8.768706e-05 -9.197010e-09 1.188024e-07))
1.483658      	((2.297568e-05 9.282460e-03 -4.040310e-02) (8.929272e-07 2.474778e-03 -8.972713e-04)) ((-2.054543e-07 1.444737e-08 -3.625132e-08) (8.588163e-05 -1.436457e-08 1.315599e-07))
1.64343       	((2.531973e-05 9.979757e-03 -3.965473e-02) (8.210004e-07 2.435291e-03 -9.068329e-04)) ((-2.249744e-07 1.125534e-08 -3.849797e-08) (8.432421e-05 -1.865327e-08 1.441011e-07))
1.803149      	((2.989599e-05 1.048775e-02 -3.889272e-02) (7.246852e-07 2.397913e-03 -9.111538e-04)) ((-2.424400e-07 7.998607e-09 -4.079052e-08) (8.298878e-05 -2.161098e-08 1.590453e-07))
1.963202      	((3.246813e-05 1.081757e-02 -3.816918e-02) (6.840475e-07 2.364192e-03 -9.130987e-04)) ((-2.577633e-07 5.220040e-09 -4.267186e-08) (8.184713e-05 -2.247670e-08 1.765462e-07))
2.123326      	((3.595198e-05 1.094220e-02 -3.746106e-02) (7.028537e-07 2.332896e-03 -9.144926e-04)) ((-2.688322e-07 3.132151e-09 -4.390431e-08) (8.082040e-05 -2.235313e-08 1.909319e-07))
2.283061      	((4.042585e-05 1.092233e-02 -3.680743e-02) (6.289436e-07 2.304538e-03 -9.148214e-04)) ((-2.752452e-07 1.490676e-09 -4.450722e-08) (7.993345e-05 -2.405116e-08 1.986668e-07))
2.442245      	((3.942505e-05 1.076678e-02 -3.619641e-02) (4.891386e-07 2.280729e-03 -9.133325e-04)) ((-2.776431e-07 2.995210e-10 -4.491197e-08) (7.923420e-05 -2.578982e-08 2.024344e-07))
2.601005      	((3.905839e-05 1.054933e-02 -3.557363e-02) (4.050708e-07 2.260576e-03 -9.111942e-04)) ((-2.776110e-07 -6.832021e-10 -4.542671e-08) (7.865589e-05 -2.484954e-08 2.043999e-07))
2.759486      	((4.496515e-05 1.034572e-02 -3.499667e-02) (4.608057e-07 2.242360e-03 -9.093615e-04)) ((-2.752581e-07 -1.168860e-09 -4.581974e-08) (7.812694e-05 -2.520991e-08 2.015740e-07))
2.917738      	((4.771483e-05 1.016782e-02 -3.450195e-02) (4.973939e-07 2.225423e-03 -9.079143e-04)) ((-2.710816e-07 -1.616565e-09 -4.583795e-08) (7.762758e-05 -2.696534e-08 1.985272e-07))
3.075739      	((5.210035e-05 1.009453e-02 -3.407038e-02) (4.905352e-07 2.209960e-03 -9.065742e-04)) ((-2.678283e-07 -2.101302e-09 -4.595615e-08) (7.716922e-05 -2.871700e-08 1.936384e-07))
3.23347       	((5.662675e-05 1.006182e-02 -3.368013e-02) (5.785099e-07 2.195795e-03 -9.053669e-04)) ((-2.643492e-07 -2.403064e-09 -4.618459e-08) (7.674545e-05 -3.048561e-08 1.832224e-07))
3.390951      	((5.995705e-05 1.001824e-02 -3.332008e-02) (7.405272e-07 2.182493e-03 -9.046731e-04)) ((-2.608762e-07 -2.703352e-09 -4.654644e-08) (7.633513e-05 -3.223558e-08 1.712241e-07))
3.548234      	((6.815660e-05 9.953530e-03 -3.297708e-02) (9.400908e-07 2.170063e-03 -9.043446e-04)) ((-2.592023e-07 -2.781509e-09 -4.680161e-08) (7.594536e-05 -3.477608e-08 1.592395e-07))
3.705355      	((7.342029e-05 9.839860e-03 -3.262363e-02) (1.140111e-06 2.158374e-03 -9.040325e-04)) ((-2.580511e-07 -2.865760e-09 -4.692155e-08) (7.558330e-05 -3.626555e-08 1.500617e-07))
3.862327      	((8.231147e-05 9.727751e-03 -3.229914e-02) (1.362612e-06 2.147243e-03 -9.036147e-04)) ((-2.573842e-07 -2.895529e-09 -4.701829e-08) (7.524697e-05 -3.732359e-08 1.438034e-07))
4.019161      	((9.311591e-05 9.629333e-03 -3.201070e-02) (1.576013e-06 2.136802e-03 -9.031340e-04)) ((-2.570348e-07 -2.893366e-09 -4.715994e-08) (7.493823e-05 -3.974223e-08 1.406099e-07))
4.175871      	((1.053715e-04 9.566849e-03 -3.175825e-02) (1.794259e-06 2.127394e-03 -9.025625e-04)) ((-2.573561e-07 -3.033052e-09 -4.743383e-08) (7.466491e-05 -4.416879e-08 1.404757e-07))
4.332463      	((1.178940e-04 9.527165e-03 -3.152078e-02) (2.051402e-06 2.119182e-03 -9.018345e-04)) ((-2.578051e-07 -3.057688e-09 -4.776960e-08) (7.443061e-05 -5.126730e-08 1.416638e-07))
4.488947      	((1.338846e-04 9.504428e-03 -3.129674e-02) (2.301136e-06 2.112073e-03 -9.009764e-04)) ((-2.579403e-07 -2.922927e-09 -4.820674e-08) (7.423201e-05 -6.192668e-08 1.455566e-07))
4.645331      	((1.503643e-04 9.465281e-03 -3.105573e-02) (2.528990e-06 2.105642e-03 -9.001290e-04)) ((-2.576710e-07 -2.578349e-09 -4.859574e-08) (7.405328e-05 -7.618513e-08 1.522272e-07))
4.80163       	((1.663202e-04 9.419485e-03 -3.082856e-02) (2.769675e-06 2.099544e-03 -8.993755e-04)) ((-2.575410e-07 -2.207404e-09 -4.888203e-08) (7.388238e-05 -9.235825e-08 1.590925e-07))
4.957849      	((1.850550e-04 9.361894e-03 -3.060930e-02) (3.056639e-06 2.093713e-03 -8.986600e-04)) ((-2.575837e-07 -1.762920e-09 -4.906254e-08) (7.372025e-05 -1.091956e-07 1.661714e-07))
5.113991      	((2.079418e-04 9.298377e-03 -3.039849e-02) (3.400778e-06 2.088117e-03 -8.979589e-04)) ((-2.576707e-07 -1.245437e-09 -4.918003e-08) (7.356806e-05 -1.271882e-07 1.737352e-07))
5.270058      	((2.336530e-04 9.235100e-03 -3.019371e-02) (3.805991e-06 2.082749e-03 -8.972910e-04)) ((-2.576949e-07 -6.903750e-10 -4.926714e-08) (7.342511e-05 -1.471243e-07 1.824256e-07))
5.426023      	((2.610251e-04 9.181502e-03 -2.999633e-02) (4.275434e-06 2.077621e-03 -8.966337e-04)) ((-2.577324e-07 -1.233729e-10 -4.940930e-08) (7.329118e-05 -1.691636e-07 1.922423e-07))
5.581882      	((2.902135e-04 9.138773e-03 -2.980975e-02) (4.810288e-06 2.072740e-03 -8.960043e-04)) ((-2.574508e-07 4.082189e-10 -4.956738e-08) (7.316421e-05 -1.932349e-07 2.027961e-07))
5.737639      	((3.209250e-04 9.102034e-03 -2.962595e-02) (5.394408e-06 2.068053e-03 -8.954745e-04)) ((-2.568981e-07 9.937069e-10 -4.973252e-08) (7.303961e-05 -2.200449e-07 2.136269e-07))
5.893294      	((3.551438e-04 9.068139e-03 -2.944915e-02) (6.046032e-06 2.063527e-03 -8.950420e-04)) ((-2.562891e-07 1.586716e-09 -4.985395e-08) (7.291665e-05 -2.501602e-07 2.235771e-07))
6.048851      	((3.898144e-04 9.034010e-03 -2.927956e-02) (6.771290e-06 2.059173e-03 -8.946521e-04)) ((-2.556630e-07 2.211254e-09 -4.997386e-08) (7.279796e-05 -2.831537e-07 2.329715e-07))
6.204313      	((4.268414e-04 8.998930e-03 -2.911476e-02) (7.548612e-06 2.054989e-03 -8.942719e-04)) ((-2.551585e-07 2.905399e-09 -5.009340e-08) (7.268460e-05 -3.192050e-07 2.431374e-07))
6.359684      	((4.663298e-04 8.965431e-03 -2.896073e-02) (8.388609e-06 2.050965e-03 -8.939032e-04)) ((-2.546580e-07 3.664799e-09 -5.020239e-08) (7.257558e-05 -3.585875e-07 2.542550e-07))
6.514968      	((5.096008e-04 8.932089e-03 -2.881491e-02) (9.304493e-06 2.047093e-03 -8.935504e-04)) ((-2.541704e-07 4.489766e-09 -5.026986e-08) (7.247012e-05 -4.010232e-07 2.663127e-07))
6.670169      	((5.574618e-04 8.900592e-03 -2.867700e-02) (1.030557e-05 2.043406e-03 -8.932066e-04)) ((-2.537238e-07 5.357713e-09 -5.030931e-08) (7.236940e-05 -4.464913e-07 2.787286e-07))
6.825292      	((6.094825e-04 8.870252e-03 -2.854023e-02) (1.141540e-05 2.039931e-03 -8.928439e-04)) ((-2.534074e-07 6.229434e-09 -5.033685e-08) (7.227497e-05 -4.949173e-07 2.903078e-07))
6.980341      	((6.656463e-04 8.843099e-03 -2.840791e-02) (1.265550e-05 2.036676e-03 -8.924401e-04)) ((-2.531363e-07 7.162025e-09 -5.040430e-08) (7.218754e-05 -5.466077e-07 3.008586e-07))
7.135321      	((7.276070e-04 8.816271e-03 -2.827644e-02) (1.401895e-05 2.033608e-03 -8.919524e-04)) ((-2.528937e-07 8.146691e-09 -5.051356e-08) (7.210733e-05 -6.022440e-07 3.121200e-07))
7.290234      	((7.960289e-04 8.791442e-03 -2.814814e-02) (1.548189e-05 2.030674e-03 -8.913800e-04)) ((-2.526636e-07 9.256001e-09 -5.064157e-08) (7.203320e-05 -6.627613e-07 3.264983e-07))
7.445084      	((8.733282e-04 8.766180e-03 -2.802257e-02) (1.707101e-05 2.027841e-03 -8.907353e-04)) ((-2.524641e-07 1.053514e-08 -5.076515e-08) (7.196365e-05 -7.297951e-07 3.444623e-07))
7.599874      	((9.588460e-04 8.743517e-03 -2.790221e-02) (1.882486e-05 2.025108e-03 -8.900171e-04)) ((-2.523617e-07 1.194670e-08 -5.086270e-08) (7.189859e-05 -8.043727e-07 3.657231e-07))
7.754608      	((1.053026e-03 8.722926e-03 -2.778553e-02) (2.075928e-05 2.022501e-03 -8.892341e-04)) ((-2.523123e-07 1.350714e-08 -5.094382e-08) (7.183825e-05 -8.871936e-07 3.899884e-07))
7.90929       	((1.156736e-03 8.703722e-03 -2.767231e-02) (2.288269e-05 2.019998e-03 -8.884178e-04)) ((-2.522617e-07 1.530423e-08 -5.100357e-08) (7.178118e-05 -9.798755e-07 4.182472e-07))
8.063922      	((1.272681e-03 8.686497e-03 -2.756309e-02) (2.522307e-05 2.017577e-03 -8.876016e-04)) ((-2.521231e-07 1.738687e-08 -5.105719e-08) (7.172628e-05 -1.084516e-06 4.516678e-07))
8.218508      	((1.400601e-03 8.670208e-03 -2.745775e-02) (2.781485e-05 2.015254e-03 -8.867764e-04)) ((-2.518787e-07 1.976398e-08 -5.108473e-08) (7.167443e-05 -1.201982e-06 4.898945e-07))
8.373052      	((1.543814e-03 8.655549e-03 -2.735536e-02) (3.068361e-05 2.013038e-03 -8.859439e-04)) ((-2.515525e-07 2.243470e-08 -5.108287e-08) (7.162652e-05 -1.333063e-06 5.331331e-07))
8.527556      	((1.705040e-03 8.644983e-03 -2.725639e-02) (3.387976e-05 2.010960e-03 -8.851032e-04)) ((-2.512802e-07 2.531289e-08 -5.107000e-08) (7.158369e-05 -1.479370e-06 5.808130e-07))
8.682023      	((1.882067e-03 8.636630e-03 -2.716418e-02) (3.744449e-05 2.009047e-03 -8.842546e-04)) ((-2.509611e-07 2.832276e-08 -5.105258e-08) (7.154579e-05 -1.642285e-06 6.324537e-07))
8.836456      	((2.078595e-03 8.629810e-03 -2.707288e-02) (4.142969e-05 2.007266e-03 -8.834128e-04)) ((-2.506039e-07 3.161284e-08 -5.103436e-08) (7.151132e-05 -1.823455e-06 6.886461e-07))
8.990857      	((2.296868e-03 8.625520e-03 -2.698295e-02) (4.588808e-05 2.005603e-03 -8.825709e-04)) ((-2.502090e-07 3.525100e-08 -5.098963e-08) (7.148038e-05 -2.024812e-06 7.506688e-07))
9.145229      	((2.535927e-03 8.627445e-03 -2.689915e-02) (5.083444e-05 2.004097e-03 -8.817105e-04)) ((-2.498687e-07 3.924775e-08 -5.097022e-08) (7.145556e-05 -2.247557e-06 8.198054e-07))
9.299575      	((2.797626e-03 8.636486e-03 -2.682232e-02) (5.630319e-05 2.002799e-03 -8.808052e-04)) ((-2.496014e-07 4.362782e-08 -5.090907e-08) (7.144012e-05 -2.493444e-06 8.966283e-07))
9.453897      	((3.085103e-03 8.651418e-03 -2.675031e-02) (6.232630e-05 2.001733e-03 -8.798408e-04)) ((-2.493105e-07 4.835691e-08 -5.085074e-08) (7.143580e-05 -2.764646e-06 9.826984e-07))
9.608184      	((3.399949e-03 8.677886e-03 -2.668871e-02) (6.896492e-05 2.000903e-03 -8.787730e-04)) ((-2.491295e-07 5.341059e-08 -5.081749e-08) (7.144406e-05 -3.063009e-06 1.079337e-06))
9.762417      	((3.749472e-03 8.710619e-03 -2.663492e-02) (7.629838e-05 2.000398e-03 -8.775879e-04)) ((-2.487925e-07 5.902840e-08 -5.077441e-08) (7.146691e-05 -3.392688e-06 1.186274e-06))
9.916596      	((4.140048e-03 8.753473e-03 -2.659242e-02) (8.442561e-05 2.000265e-03 -8.763071e-04)) ((-2.482078e-07 6.549337e-08 -5.077604e-08) (7.150709e-05 -3.759989e-06 1.302989e-06))
10.070722     	((4.567695e-03 8.809490e-03 -2.656373e-02) (9.349201e-05 2.000530e-03 -8.750166e-04)) ((-2.475035e-07 7.246517e-08 -5.084083e-08) (7.156518e-05 -4.168336e-06 1.427992e-06))
10.224797     	((5.037203e-03 8.884313e-03 -2.655154e-02) (1.035883e-04 2.001328e-03 -8.737074e-04)) ((-2.467063e-07 8.023851e-08 -5.097066e-08) (7.164468e-05 -4.619708e-06 1.563546e-06))
10.378822     	((5.554734e-03 8.979381e-03 -2.655257e-02) (1.147178e-04 2.002803e-03 -8.723079e-04)) ((-2.458128e-07 8.847596e-08 -5.110565e-08) (7.175039e-05 -5.116137e-06 1.711758e-06))
10.532802     	((6.120787e-03 9.100775e-03 -2.657142e-02) (1.269217e-04 2.005179e-03 -8.706817e-04)) ((-2.451263e-07 9.691775e-08 -5.125209e-08) (7.189137e-05 -5.659651e-06 1.869670e-06))
10.686736     	((6.738077e-03 9.251234e-03 -2.660714e-02) (1.403250e-04 2.008644e-03 -8.686539e-04)) ((-2.446866e-07 1.057177e-07 -5.121431e-08) (7.207838e-05 -6.250506e-06 2.036041e-06))
10.840626     	((7.401550e-03 9.434310e-03 -2.666390e-02) (1.551711e-04 2.013106e-03 -8.661588e-04)) ((-2.446120e-07 1.149942e-07 -5.113983e-08) (7.231885e-05 -6.890404e-06 2.210148e-06))
10.994472     	((8.110809e-03 9.654030e-03 -2.673926e-02) (1.715773e-04 2.018592e-03 -8.632457e-04)) ((-2.449917e-07 1.249626e-07 -5.100323e-08) (7.261800e-05 -7.581372e-06 2.388567e-06))
11.148274     	((8.873513e-03 9.929575e-03 -2.685134e-02) (1.895888e-04 2.025502e-03 -8.599401e-04)) ((-2.464985e-07 1.353542e-07 -5.077803e-08) (7.298388e-05 -8.326933e-06 2.569509e-06))
11.30203      	((9.662052e-03 1.026285e-02 -2.701360e-02) (2.091205e-04 2.034196e-03 -8.562505e-04)) ((-2.491196e-07 1.452685e-07 -5.061173e-08) (7.342356e-05 -9.121647e-06 2.758984e-06))
11.455733     	((1.047364e-02 1.063734e-02 -2.721477e-02) (2.299282e-04 2.044835e-03 -8.522783e-04)) ((-2.517554e-07 1.553764e-07 -5.052261e-08) (7.393865e-05 -9.956372e-06 2.957399e-06))
11.609374     	((1.130317e-02 1.106181e-02 -2.746434e-02) (2.518654e-04 2.057572e-03 -8.481131e-04)) ((-2.544585e-07 1.659723e-07 -5.060025e-08) (7.453030e-05 -1.082825e-05 3.160882e-06))
11.762939     	((1.213614e-02 1.154472e-02 -2.775518e-02) (2.750301e-04 2.072569e-03 -8.437450e-04)) ((-2.575626e-07 1.763117e-07 -5.095234e-08) (7.520182e-05 -1.173638e-05 3.356306e-06))
11.916455     	((1.292820e-02 1.207632e-02 -2.808865e-02) (2.992075e-04 2.089917e-03 -8.392266e-04)) ((-2.618399e-07 1.855667e-07 -5.139473e-08) (7.595234e-05 -1.266923e-05 3.532473e-06))
12.069938     	((1.365107e-02 1.266060e-02 -2.846832e-02) (3.238376e-04 2.109556e-03 -8.344895e-04)) ((-2.676535e-07 1.933179e-07 -5.179415e-08) (7.677764e-05 -1.360821e-05 3.684505e-06))
12.223372     	((1.428256e-02 1.328859e-02 -2.889129e-02) (3.483340e-04 2.131540e-03 -8.292881e-04)) ((-2.751184e-07 1.989400e-07 -5.239854e-08) (7.767940e-05 -1.453748e-05 3.813571e-06))
12.376771     	((1.478095e-02 1.391145e-02 -2.933333e-02) (3.720048e-04 2.155666e-03 -8.235329e-04)) ((-2.830045e-07 2.019630e-07 -5.321303e-08) (7.864980e-05 -1.543268e-05 3.912907e-06))
12.530159     	((1.510534e-02 1.449656e-02 -2.979905e-02) (3.940335e-04 2.181431e-03 -8.173100e-04)) ((-2.903992e-07 2.018358e-07 -5.398569e-08) (7.966537e-05 -1.626022e-05 3.973140e-06))
12.683543     	((1.523818e-02 1.499189e-02 -3.021665e-02) (4.135973e-04 2.207483e-03 -8.107387e-04)) ((-2.969115e-07 1.988295e-07 -5.432108e-08) (8.069016e-05 -1.699250e-05 4.000752e-06))
12.836921     	((1.509100e-02 1.538801e-02 -3.063651e-02) (4.295751e-04 2.232040e-03 -8.038938e-04)) ((-3.026144e-07 1.906354e-07 -5.425886e-08) (8.168125e-05 -1.759175e-05 4.001580e-06))
12.990313     	((1.464414e-02 1.561880e-02 -3.104662e-02) (4.405514e-04 2.253949e-03 -7.967669e-04)) ((-3.065971e-07 1.774113e-07 -5.368470e-08) (8.260034e-05 -1.799665e-05 3.970771e-06))
13.143741     	((1.385559e-02 1.561635e-02 -3.136094e-02) (4.450433e-04 2.272493e-03 -7.895709e-04)) ((-3.083477e-07 1.593930e-07 -5.250312e-08) (8.339832e-05 -1.813927e-05 3.896734e-06))
13.29724      	((1.270624e-02 1.538007e-02 -3.158531e-02) (4.412427e-04 2.286635e-03 -7.824134e-04)) ((-3.086686e-07 1.370820e-07 -5.152524e-08) (8.403886e-05 -1.794980e-05 3.785116e-06))
13.450855     	((1.116887e-02 1.492507e-02 -3.174662e-02) (4.273692e-04 2.295653e-03 -7.756449e-04)) ((-3.072531e-07 1.111887e-07 -5.037998e-08) (8.449513e-05 -1.737297e-05 3.643670e-06))
13.604655     	((9.281627e-03 1.426710e-02 -3.183445e-02) (4.020906e-04 2.299510e-03 -7.704769e-04)) ((-3.018702e-07 8.150871e-08 -4.911459e-08) (8.473020e-05 -1.638546e-05 3.474004e-06))
13.758693     	((7.102275e-03 1.357894e-02 -3.188493e-02) (3.654945e-04 2.299004e-03 -7.681521e-04)) ((-2.943868e-07 4.857355e-08 -4.849938e-08) (8.472939e-05 -1.501892e-05 3.287078e-06))
13.912981     	((4.843863e-03 1.293363e-02 -3.189802e-02) (3.196593e-04 2.295841e-03 -7.695849e-04)) ((-2.861807e-07 1.752115e-08 -4.619217e-08) (8.451917e-05 -1.336522e-05 3.064439e-06))
14.067534     	((2.683594e-03 1.239571e-02 -3.188484e-02) (2.675728e-04 2.291081e-03 -7.747733e-04)) ((-2.791151e-07 -9.176998e-09 -4.077608e-08) (8.414151e-05 -1.153207e-05 2.814003e-06))
14.222362     	((7.835060e-04 1.200113e-02 -3.181528e-02) (2.131956e-04 2.286505e-03 -7.824883e-04)) ((-2.776818e-07 -3.494241e-08 -3.252760e-08) (8.367315e-05 -9.625006e-06 2.516408e-06))
