# Forces      
# CofR        : (0.000000e+00 0.000000e+00 0.000000e+00)
# Time        forces(pressure viscous)	moments(pressure viscous)
0             	((0.000000e+00 0.000000e+00 0.000000e+00) (0.000000e+00 0.000000e+00 0.000000e+00)) ((0.000000e+00 0.000000e+00 0.000000e+00) (0.000000e+00 0.000000e+00 0.000000e+00))
0.012         	((-1.026833e-12 2.397996e-10 -3.119837e-12) (-3.067013e-14 2.689635e-12 -1.128977e-14)) ((-1.724802e-14 -6.297284e-17 -3.300956e-12) (5.136209e-14 1.405715e-15 -6.712882e-09))
0.0264        	((7.784801e-13 -8.697566e-11 7.213483e-12) (-3.472917e-14 2.869507e-12 -1.764050e-14)) ((-4.057940e-14 2.998965e-16 -9.895986e-13) (9.136850e-14 1.351355e-15 -5.875311e-09))
0.04368       	((-4.631351e-12 4.381381e-11 -4.375230e-12) (-4.374852e-14 1.881610e-12 -3.862245e-14)) ((1.866276e-14 -4.759173e-17 -5.178984e-13) (7.722608e-14 1.845532e-15 -5.080933e-09))
0.064416      	((-3.232411e-12 3.485168e-12 1.701517e-12) (-4.379369e-14 1.007755e-12 -3.121649e-14)) ((-5.208218e-15 -7.903266e-17 -3.471418e-13) (3.946786e-14 2.288673e-15 -4.351469e-09))
0.0892992     	((-4.671321e-12 2.111263e-11 -1.489327e-12) (-3.732747e-14 6.395520e-13 -1.694172e-15)) ((5.686708e-15 -4.050814e-16 -2.792968e-13) (1.894276e-14 2.252229e-15 -3.706212e-09))
0.119159      	((-1.850068e-12 1.810226e-12 -1.156564e-12) (-5.359574e-14 5.430952e-13 1.670966e-14)) ((3.483812e-15 -3.068535e-16 -2.215070e-13) (-7.501229e-15 2.740902e-15 -3.154173e-09))
0.154991      	((-3.497855e-12 1.764706e-11 -9.813288e-13) (-6.493798e-14 4.025412e-13 3.136906e-14)) ((3.331062e-15 -4.026650e-16 -1.768667e-13) (-2.671930e-14 3.018418e-15 -2.699371e-09))
0.197989      	((-3.293713e-12 1.373125e-11 -1.290616e-12) (-4.038995e-14 2.530096e-13 3.799615e-14)) ((2.634302e-15 -2.299782e-16 -1.381937e-13) (-3.653535e-14 1.497959e-15 -2.334135e-09))
0.249587      	((-4.467352e-12 1.592690e-11 -9.928426e-13) (4.238077e-15 8.756853e-14 3.588040e-14)) ((2.678424e-15 -1.354669e-16 -1.139595e-13) (-3.364122e-14 -9.864269e-16 -2.043573e-09))
0.311504      	((-7.279806e-12 2.069130e-11 -1.953462e-12) (3.444407e-14 -5.291747e-14 4.766534e-14)) ((1.920679e-15 3.467562e-17 -1.007250e-13) (-2.816060e-14 -2.602823e-15 -1.810093e-09))
0.385805      	((-8.779167e-12 2.670773e-11 -1.882690e-12) (3.141445e-14 5.579423e-14 6.250044e-14)) ((1.446795e-15 -2.721414e-17 -8.779210e-14) (-2.137879e-14 -3.226679e-15 -1.617728e-09))
0.474966      	((-1.200555e-11 3.237026e-11 -2.963489e-12) (7.768988e-14 1.485589e-13 6.057705e-14)) ((-1.616444e-16 7.596628e-17 -7.657808e-14) (-6.762684e-15 -3.784454e-15 -1.454504e-09))
0.581959      	((-1.586917e-11 4.189318e-11 -3.589368e-12) (1.286228e-13 2.794552e-13 3.485157e-14)) ((-8.986034e-16 2.492627e-17 -7.102307e-14) (2.212476e-14 -4.708472e-15 -1.312564e-09))
0.710351      	((-1.948525e-11 4.180355e-11 -4.435566e-12) (3.053369e-13 6.655977e-13 -2.157611e-14)) ((-1.835233e-15 -3.027554e-18 -6.758277e-14) (4.656623e-14 -7.776766e-15 -1.187032e-09))
0.864421      	((-2.193866e-11 3.365813e-11 -4.216002e-12) (6.588179e-13 5.151425e-13 -1.834159e-14)) ((-2.814477e-15 -1.544623e-16 -6.438621e-14) (4.206662e-14 -1.493863e-14 -1.074845e-09))
1.049306      	((-2.317442e-11 3.024105e-11 -3.777984e-12) (1.106504e-12 -3.975985e-13 -6.876281e-14)) ((-3.554585e-15 -2.850076e-16 -6.095873e-14) (1.603361e-14 -2.237927e-14 -9.741129e-10))
1.271167      	((-2.047706e-11 2.635985e-11 -4.251234e-12) (1.959517e-12 -1.658718e-12 -1.362006e-13)) ((-4.494548e-15 -4.777175e-16 -5.838335e-14) (-1.636165e-14 -3.933347e-14 -8.838775e-10))
1.5374        	((-1.563842e-11 2.576446e-11 -3.538116e-12) (3.286829e-12 -3.093498e-12 -1.281749e-13)) ((-4.022791e-15 -5.700683e-16 -5.653073e-14) (-5.215766e-14 -7.416021e-14 -8.036770e-10))
1.85688       	((-1.104699e-11 1.984387e-11 -2.041057e-12) (4.912318e-12 -4.171114e-12 -1.434700e-13)) ((-3.668593e-15 -7.146534e-16 -5.416375e-14) (-9.119016e-14 -1.145626e-13 -7.330705e-10))
2.240256      	((-5.904854e-12 1.316351e-11 -1.117330e-12) (6.891309e-12 -5.329097e-12 -2.177485e-13)) ((-4.256340e-15 -8.165541e-16 -5.123956e-14) (-1.410485e-13 -1.687283e-13 -6.713580e-10))
2.700307      	((-3.679724e-12 7.998606e-12 1.257847e-13) (8.986517e-12 -7.169398e-12 -4.214634e-13)) ((-3.943636e-15 -8.375757e-16 -4.867726e-14) (-2.070681e-13 -2.336369e-13 -6.175018e-10))
3.252369      	((1.951288e-13 4.489664e-12 -8.674454e-13) (1.099158e-11 -9.336522e-12 -6.030637e-13)) ((-3.261118e-15 -8.348799e-16 -4.536361e-14) (-2.674227e-13 -2.933406e-13 -5.702822e-10))
3.914842      	((3.937364e-13 -2.277412e-12 -4.626564e-13) (1.233842e-11 -1.116547e-11 -6.230451e-13)) ((-2.486126e-15 -6.639480e-16 -4.234879e-14) (-3.021668e-13 -3.323027e-13 -5.284642e-10))
4.709811      	((3.273821e-12 -7.399948e-12 7.558514e-14) (1.293730e-11 -1.229671e-11 -6.301333e-13)) ((-1.658208e-15 -3.318803e-16 -3.975159e-14) (-3.239422e-13 -3.527541e-13 -4.909962e-10))
5.663773      	((3.802609e-12 -3.327781e-12 1.651838e-14) (1.277393e-11 -1.243828e-11 -5.555056e-13)) ((-1.716882e-15 -8.832998e-17 -3.707986e-14) (-3.190121e-13 -3.541850e-13 -4.571110e-10))
6.808528      	((4.493751e-12 -3.297626e-12 -2.906210e-13) (1.175030e-11 -1.149770e-11 -4.772977e-13)) ((-1.578722e-15 2.496868e-17 -3.454533e-14) (-2.855278e-13 -3.312103e-13 -4.262041e-10))
8.182233      	((3.549843e-12 -2.260816e-12 -6.375050e-13) (1.015290e-11 -9.800141e-12 -3.733074e-13)) ((-1.082582e-15 2.159017e-16 -3.208933e-14) (-2.455990e-13 -2.885550e-13 -3.978111e-10))
9.83068       	((3.462442e-12 1.091938e-12 -7.701510e-13) (8.151296e-12 -7.836816e-12 -2.457390e-13)) ((-1.124304e-15 3.704010e-16 -2.980972e-14) (-1.963445e-13 -2.383951e-13 -3.716774e-10))
11.808816     	((3.067169e-13 5.733581e-12 -1.168839e-12) (6.116102e-12 -5.785744e-12 -2.459708e-13)) ((-6.010165e-16 5.641411e-16 -2.767811e-14) (-1.348651e-13 -1.859549e-13 -3.476883e-10))
14.182579     	((-4.318716e-13 3.652886e-12 -1.355079e-12) (4.340835e-12 -4.107365e-12 -2.085287e-13)) ((1.281464e-17 6.372928e-16 -2.563320e-14) (-8.188400e-14 -1.409124e-13 -3.257011e-10))
17.031095     	((-2.670037e-12 3.747534e-12 -2.127528e-12) (2.969236e-12 -2.838075e-12 -1.148756e-13)) ((5.517856e-16 5.209033e-16 -2.385878e-14) (-5.410560e-14 -1.054278e-13 -3.055736e-10))
20.449314     	((-3.172310e-12 4.372508e-12 -2.692828e-12) (2.154810e-12 -2.063993e-12 2.000849e-14)) ((7.029210e-16 4.945666e-16 -2.219103e-14) (-4.093357e-14 -8.612184e-14 -2.871698e-10))
24.551176     	((-4.335073e-12 4.827822e-12 -2.937706e-12) (1.865237e-12 -1.817221e-12 2.174612e-13)) ((9.056863e-16 4.416270e-16 -2.071305e-14) (-4.236900e-14 -7.939408e-14 -2.703358e-10))
29.473411     	((-3.718388e-12 3.734633e-12 -3.222884e-12) (2.028585e-12 -2.112620e-12 3.651250e-13)) ((9.316106e-16 3.981142e-16 -1.942839e-14) (-5.251883e-14 -8.274947e-14 -2.549162e-10))
35.380094     	((-3.394115e-12 3.463586e-12 -3.498513e-12) (2.507799e-12 -2.818873e-12 5.780777e-13)) ((9.449589e-16 3.767116e-16 -1.829447e-14) (-7.406677e-14 -9.273274e-14 -2.407766e-10))
42.468112     	((-2.690368e-12 2.382991e-12 -3.734807e-12) (3.136737e-12 -3.662617e-12 7.797452e-13)) ((9.991791e-16 3.491580e-16 -1.726980e-14) (-9.841523e-14 -1.055284e-13 -2.278201e-10))
50.973735     	((-2.564661e-12 2.419051e-12 -4.015560e-12) (3.727601e-12 -4.366813e-12 9.591358e-13)) ((1.012394e-15 3.091152e-16 -1.629410e-14) (-1.191219e-13 -1.179779e-13 -2.159805e-10))
61.180482     	((-1.972264e-12 1.554961e-12 -4.235444e-12) (4.200204e-12 -4.947076e-12 1.141013e-12)) ((9.990018e-16 2.566238e-16 -1.538191e-14) (-1.366488e-13 -1.276866e-13 -2.051900e-10))
73.428578     	((-1.600504e-12 1.687286e-12 -4.448647e-12) (4.581269e-12 -5.358798e-12 1.323393e-12)) ((1.019920e-15 2.148861e-16 -1.456093e-14) (-1.483008e-13 -1.363129e-13 -1.953759e-10))
88.126294     	((-1.243168e-12 1.111275e-12 -4.619626e-12) (4.861695e-12 -5.596972e-12 1.500489e-12)) ((1.071166e-15 1.748150e-16 -1.382883e-14) (-1.541629e-13 -1.419720e-13 -1.864664e-10))
105.763553    	((-8.047409e-13 6.295419e-13 -4.813824e-12) (5.033986e-12 -5.772085e-12 1.692381e-12)) ((1.093054e-15 1.407534e-16 -1.318980e-14) (-1.595693e-13 -1.440747e-13 -1.783810e-10))
126.928263    	((-5.433813e-13 4.968284e-13 -5.155135e-12) (5.099280e-12 -5.871010e-12 1.899903e-12)) ((1.074464e-15 1.059258e-16 -1.262755e-14) (-1.628228e-13 -1.433969e-13 -1.710355e-10))
152.325916    	((-4.116999e-13 4.666097e-13 -5.472727e-12) (5.107560e-12 -5.866244e-12 2.113179e-12)) ((1.026161e-15 7.134392e-17 -1.211470e-14) (-1.631080e-13 -1.424086e-13 -1.643512e-10))
182.803099    	((-2.193042e-13 4.587590e-13 -5.768525e-12) (5.046422e-12 -5.811133e-12 2.309987e-12)) ((9.653694e-16 3.720349e-17 -1.162634e-14) (-1.614713e-13 -1.399055e-13 -1.582600e-10))
219.375719    	((2.802532e-14 2.917767e-13 -5.993889e-12) (4.910629e-12 -5.708553e-12 2.526696e-12)) ((9.445685e-16 2.289308e-17 -1.116778e-14) (-1.574914e-13 -1.347833e-13 -1.527018e-10))
263.262863    	((2.262279e-13 1.932030e-13 -6.335963e-12) (4.714374e-12 -5.536951e-12 2.737914e-12)) ((9.376915e-16 -1.135462e-17 -1.074930e-14) (-1.508394e-13 -1.281185e-13 -1.476265e-10))
315.927436    	((3.760997e-13 1.275911e-13 -6.681692e-12) (4.502104e-12 -5.338615e-12 2.935134e-12)) ((9.041774e-16 -4.034810e-17 -1.036663e-14) (-1.429220e-13 -1.212808e-13 -1.429905e-10))
379.124923    	((4.065072e-13 1.360791e-13 -7.088129e-12) (4.285138e-12 -5.112386e-12 3.147592e-12)) ((8.544141e-16 -7.803448e-17 -1.001457e-14) (-1.354330e-13 -1.148137e-13 -1.387583e-10))
454.961908    	((4.225659e-13 1.274417e-13 -7.318095e-12) (4.069564e-12 -4.860702e-12 3.361102e-12)) ((8.058521e-16 -9.426609e-17 -9.700156e-15) (-1.272495e-13 -1.090027e-13 -1.349016e-10))
545.966289    	((4.319616e-13 8.518108e-14 -7.531885e-12) (3.847067e-12 -4.588385e-12 3.571544e-12)) ((7.780879e-16 -9.970708e-17 -9.420329e-15) (-1.185993e-13 -1.025890e-13 -1.313946e-10))
655.171547    	((4.982863e-13 -5.072483e-14 -7.810992e-12) (3.620580e-12 -4.322422e-12 3.781660e-12)) ((7.599391e-16 -8.773519e-17 -9.167908e-15) (-1.105995e-13 -9.591639e-14 -1.282138e-10))
786.217856    	((5.582104e-13 -1.784533e-13 -8.102829e-12) (3.387885e-12 -4.060683e-12 3.997266e-12)) ((7.637799e-16 -8.701471e-17 -8.941316e-15) (-1.031261e-13 -8.906156e-14 -1.253369e-10))
943.473427    	((6.804562e-13 -2.448416e-13 -8.384973e-12) (3.158581e-12 -3.790044e-12 4.208323e-12)) ((7.804342e-16 -8.082087e-17 -8.743666e-15) (-9.550003e-14 -8.203339e-14 -1.227403e-10))
1132.180113   	((7.664351e-13 -3.553894e-13 -8.632311e-12) (2.928243e-12 -3.521540e-12 4.407376e-12)) ((7.985439e-16 -7.315038e-17 -8.552348e-15) (-8.779502e-14 -7.472372e-14 -1.204020e-10))
1358.628135   	((8.479246e-13 -4.660807e-13 -8.872608e-12) (2.708382e-12 -3.276979e-12 4.593137e-12)) ((8.133924e-16 -7.269012e-17 -8.373766e-15) (-8.101733e-14 -6.783754e-14 -1.182999e-10))
1630.365763   	((9.743775e-13 -5.646661e-13 -9.096027e-12) (2.500359e-12 -3.046102e-12 4.780204e-12)) ((8.261253e-16 -7.238498e-17 -8.211926e-15) (-7.476365e-14 -6.101490e-14 -1.164121e-10))
1956.450915   	((1.111428e-12 -6.065523e-13 -9.308687e-12) (2.300702e-12 -2.822473e-12 4.972780e-12)) ((8.320504e-16 -7.619341e-17 -8.068473e-15) (-6.879497e-14 -5.413846e-14 -1.147171e-10))
2347.753098   	((1.273996e-12 -6.503752e-13 -9.526469e-12) (2.126625e-12 -2.610532e-12 5.156657e-12)) ((8.362708e-16 -8.198804e-17 -7.939980e-15) (-6.289434e-14 -4.820967e-14 -1.131962e-10))
2817.315718   	((1.465693e-12 -6.805379e-13 -9.769477e-12) (1.969869e-12 -2.413415e-12 5.330089e-12)) ((8.356373e-16 -8.829977e-17 -7.824153e-15) (-5.749775e-14 -4.297743e-14 -1.118314e-10))
3380.790861   	((1.686217e-12 -6.929943e-13 -1.002307e-11) (1.827013e-12 -2.239364e-12 5.490731e-12)) ((8.290964e-16 -9.525449e-17 -7.716978e-15) (-5.263685e-14 -3.822791e-14 -1.106061e-10))
4056.961033   	((1.936939e-12 -6.920775e-13 -1.031495e-11) (1.700509e-12 -2.090297e-12 5.642517e-12)) ((8.254706e-16 -1.030405e-16 -7.621141e-15) (-4.846171e-14 -3.417759e-14 -1.095048e-10))
4868.36524    	((2.234342e-12 -6.385637e-13 -1.065213e-11) (1.593787e-12 -1.965002e-12 5.784065e-12)) ((8.243669e-16 -1.132886e-16 -7.537280e-15) (-4.488804e-14 -3.086023e-14 -1.085142e-10))
5842.050288   	((2.599142e-12 -5.849364e-13 -1.103970e-11) (1.503795e-12 -1.857565e-12 5.913348e-12)) ((8.261026e-16 -1.228630e-16 -7.461251e-15) (-4.193947e-14 -2.823147e-14 -1.076223e-10))
7010.472346   	((3.050462e-12 -4.971184e-13 -1.148827e-11) (1.428839e-12 -1.760457e-12 6.025750e-12)) ((8.306859e-16 -1.332424e-16 -7.389860e-15) (-3.941160e-14 -2.611958e-14 -1.068183e-10))
8412.578815   	((3.582367e-12 -3.653525e-13 -1.201738e-11) (1.366371e-12 -1.672428e-12 6.121959e-12)) ((8.386047e-16 -1.504384e-16 -7.323682e-15) (-3.734554e-14 -2.434037e-14 -1.060929e-10))
10095.106578  	((4.208161e-12 -2.033874e-13 -1.261979e-11) (1.316094e-12 -1.589081e-12 6.202242e-12)) ((8.422833e-16 -1.727728e-16 -7.263380e-15) (-3.551848e-14 -2.273673e-14 -1.054376e-10))
12114.139893  	((4.952731e-12 -1.475150e-14 -1.333897e-11) (1.276151e-12 -1.506112e-12 6.267905e-12)) ((8.472838e-16 -2.003407e-16 -7.208900e-15) (-3.368968e-14 -2.128314e-14 -1.048447e-10))
14536.979872  	((5.821141e-12 2.006982e-13 -1.416868e-11) (1.245452e-12 -1.423420e-12 6.325713e-12)) ((8.523412e-16 -2.339108e-16 -7.160099e-15) (-3.181561e-14 -2.005470e-14 -1.043080e-10))
17444.387847  	((6.806993e-12 4.320195e-13 -1.510206e-11) (1.223863e-12 -1.343533e-12 6.373995e-12)) ((8.559139e-16 -2.731454e-16 -7.116651e-15) (-2.998630e-14 -1.893295e-14 -1.038219e-10))
20933.277416  	((7.958961e-12 6.883767e-13 -1.615818e-11) (1.211260e-12 -1.267073e-12 6.410198e-12)) ((8.592555e-16 -3.164345e-16 -7.077206e-15) (-2.834373e-14 -1.775433e-14 -1.033811e-10))
25119.944899  	((9.291076e-12 9.676339e-13 -1.734825e-11) (1.204829e-12 -1.192973e-12 6.433297e-12)) ((8.669774e-16 -3.628622e-16 -7.040874e-15) (-2.689692e-14 -1.651034e-14 -1.029812e-10))
30143.945879  	((1.077401e-11 1.275684e-12 -1.863836e-11) (1.204644e-12 -1.121758e-12 6.444967e-12)) ((8.774619e-16 -4.088526e-16 -7.006020e-15) (-2.550824e-14 -1.519282e-14 -1.026181e-10))
36172.747055  	((1.233957e-11 1.599606e-12 -2.000636e-11) (1.209969e-12 -1.056336e-12 6.446975e-12)) ((8.913639e-16 -4.551239e-16 -6.972885e-15) (-2.433049e-14 -1.385868e-14 -1.022881e-10))
43407.308466  	((1.395150e-11 1.955655e-12 -2.142526e-11) (1.222550e-12 -9.951129e-13 6.443236e-12)) ((9.062419e-16 -4.998438e-16 -6.942791e-15) (-2.339163e-14 -1.267876e-14 -1.019880e-10))
51926.307392  	((1.559593e-11 2.325478e-12 -2.290745e-11) (1.239992e-12 -9.374638e-13 6.436254e-12)) ((9.215043e-16 -5.433921e-16 -6.914018e-15) (-2.262479e-14 -1.160785e-14 -1.017149e-10))
61729.757568  	((1.721831e-11 2.692498e-12 -2.430241e-11) (1.260709e-12 -8.821866e-13 6.425824e-12)) ((9.340433e-16 -5.793436e-16 -6.886648e-15) (-2.203217e-14 -1.063195e-14 -1.014662e-10))
72817.67125   	((1.876813e-11 3.060278e-12 -2.562065e-11) (1.279531e-12 -8.283488e-13 6.415845e-12)) ((9.437172e-16 -6.122678e-16 -6.861577e-15) (-2.154920e-14 -9.688800e-15 -1.012395e-10))
85190.059299  	((2.032371e-11 3.473973e-12 -2.686346e-11) (1.294169e-12 -7.791884e-13 6.407578e-12)) ((9.551021e-16 -6.455974e-16 -6.836173e-15) (-2.124571e-14 -8.691847e-15 -1.010329e-10))
98034.899918  	((2.185610e-11 3.960117e-12 -2.803057e-11) (1.304921e-12 -7.328890e-13 6.399051e-12)) ((9.714436e-16 -6.772620e-16 -6.811425e-15) (-2.109267e-14 -7.539487e-15 -1.008445e-10))
110879.828151 	((2.332178e-11 4.561817e-12 -2.909876e-11) (1.310856e-12 -6.881265e-13 6.389860e-12)) ((9.903339e-16 -7.049134e-16 -6.787880e-15) (-2.110894e-14 -6.242720e-15 -1.006727e-10))
123724.836171 	((2.467124e-11 5.257614e-12 -3.006323e-11) (1.311191e-12 -6.446561e-13 6.379866e-12)) ((1.009235e-15 -7.259060e-16 -6.766025e-15) (-2.119262e-14 -4.735996e-15 -1.005159e-10))
136569.917265 	((2.584940e-11 5.989302e-12 -3.089106e-11) (1.307970e-12 -6.037589e-13 6.369872e-12)) ((1.027202e-15 -7.423239e-16 -6.744818e-15) (-2.131881e-14 -3.134292e-15 -1.003727e-10))
149415.065526 	((2.684481e-11 6.732856e-12 -3.157689e-11) (1.300106e-12 -5.635475e-13 6.363226e-12)) ((1.046551e-15 -7.520593e-16 -6.726074e-15) (-2.142488e-14 -1.545224e-15 -1.002420e-10))
162260.275955 	((2.767205e-11 7.476530e-12 -3.215238e-11) (1.289013e-12 -5.256033e-13 6.358566e-12)) ((1.064322e-15 -7.596850e-16 -6.709125e-15) (-2.154714e-14 -1.896327e-17 -1.001226e-10))
175105.543866 	((2.837023e-11 8.211822e-12 -3.264471e-11) (1.275887e-12 -4.891928e-13 6.356766e-12)) ((1.080592e-15 -7.671637e-16 -6.693802e-15) (-2.160847e-14 1.379210e-15 -1.000134e-10))
187950.864653 	((2.897572e-11 8.951996e-12 -3.308368e-11) (1.262027e-12 -4.538423e-13 6.356171e-12)) ((1.099097e-15 -7.741636e-16 -6.680372e-15) (-2.161912e-14 2.676613e-15 -9.991368e-11))
200796.233848 	((2.949058e-11 9.685807e-12 -3.346854e-11) (1.248995e-12 -4.227765e-13 6.355258e-12)) ((1.116224e-15 -7.797728e-16 -6.667942e-15) (-2.171776e-14 3.836099e-15 -9.982250e-11))
213641.647267 	((2.992714e-11 1.039165e-11 -3.379209e-11) (1.237366e-12 -3.950763e-13 6.355998e-12)) ((1.131417e-15 -7.856302e-16 -6.656891e-15) (-2.181908e-14 4.903866e-15 -9.973914e-11))
226487.101089 	((3.029861e-11 1.104465e-11 -3.406600e-11) (1.227632e-12 -3.702530e-13 6.359044e-12)) ((1.144747e-15 -7.927983e-16 -6.647855e-15) (-2.188167e-14 5.853121e-15 -9.966292e-11))
239332.591784 	((3.060651e-11 1.162470e-11 -3.429582e-11) (1.220237e-12 -3.485331e-13 6.363854e-12)) ((1.159430e-15 -8.000832e-16 -6.640308e-15) (-2.193033e-14 6.649570e-15 -9.959323e-11))
252178.116096 	((3.086367e-11 1.212362e-11 -3.448070e-11) (1.213645e-12 -3.300702e-13 6.370250e-12)) ((1.172447e-15 -8.069684e-16 -6.632611e-15) (-2.199044e-14 7.351561e-15 -9.952945e-11))
265023.670867 	((3.106887e-11 1.258351e-11 -3.463826e-11) (1.206809e-12 -3.135032e-13 6.378783e-12)) ((1.184653e-15 -8.142362e-16 -6.626023e-15) (-2.203519e-14 8.040416e-15 -9.947107e-11))
277869.25329  	((3.122711e-11 1.303667e-11 -3.477710e-11) (1.200097e-12 -2.982049e-13 6.388323e-12)) ((1.197572e-15 -8.212326e-16 -6.620548e-15) (-2.208559e-14 8.681568e-15 -9.941764e-11))
290714.860765 	((3.136048e-11 1.350244e-11 -3.490080e-11) (1.192616e-12 -2.839525e-13 6.398586e-12)) ((1.211198e-15 -8.281416e-16 -6.615703e-15) (-2.216208e-14 9.326954e-15 -9.936870e-11))
303560.490932 	((3.147424e-11 1.401390e-11 -3.501884e-11) (1.185896e-12 -2.708269e-13 6.407516e-12)) ((1.224956e-15 -8.352349e-16 -6.611084e-15) (-2.232482e-14 9.901771e-15 -9.932384e-11))
