# Forces      
# CofR        : (0.000000e+00 0.000000e+00 0.000000e+00)
# Time        forces(pressure viscous)	moments(pressure viscous)
0             	((0.000000e+00 0.000000e+00 0.000000e+00) (0.000000e+00 0.000000e+00 0.000000e+00)) ((0.000000e+00 0.000000e+00 0.000000e+00) (0.000000e+00 0.000000e+00 0.000000e+00))
0.012         	((-1.242730e-10 3.019982e-08 -3.985471e-10) (-3.752933e-12 3.384403e-10 -9.900414e-13)) ((-2.177788e-12 -3.456287e-15 -4.163304e-10) (6.456396e-12 1.830402e-13 -8.451049e-07))
0.0264        	((7.165777e-11 -1.093533e-08 7.926412e-10) (-3.659242e-12 3.615423e-10 -2.880343e-12)) ((-5.119151e-12 5.221235e-14 -1.257490e-10) (1.147671e-11 1.780884e-13 -7.396898e-07))
0.04368       	((-6.288063e-10 5.531013e-09 -1.046185e-09) (-4.774461e-12 2.361640e-10 -7.487384e-12)) ((2.332319e-12 1.206935e-14 -6.663472e-11) (9.614556e-12 2.459581e-13 -6.397920e-07))
0.064416      	((-3.903713e-10 5.313244e-10 -6.413608e-10) (-7.127603e-12 1.244785e-10 -4.303155e-12)) ((-6.865833e-13 6.081598e-15 -4.533516e-11) (4.721190e-12 3.971045e-13 -5.481845e-07))
0.0892992     	((-5.132348e-10 2.656898e-09 -1.488141e-09) (-7.028964e-12 7.666681e-11 4.448574e-12)) ((6.977412e-13 -1.371386e-14 -3.681207e-11) (2.191690e-12 4.915743e-13 -4.673101e-07))
0.119159      	((-7.041708e-11 3.541703e-10 -1.962128e-09) (-9.546471e-12 6.777817e-11 2.458471e-11)) ((4.248448e-13 2.834785e-14 -2.947656e-11) (-8.472478e-13 4.776390e-13 -3.982260e-07))
0.154991      	((-3.284664e-10 2.294874e-09 -2.430492e-09) (-1.659214e-11 5.336465e-11 7.007690e-11)) ((4.193379e-13 1.198600e-14 -2.362767e-11) (-3.196589e-12 4.983133e-13 -3.412772e-07))
0.197989      	((-4.901850e-10 1.800964e-09 -2.830136e-09) (-2.277334e-11 3.098046e-11 1.648614e-10)) ((3.321736e-13 3.160092e-14 -1.867263e-11) (-4.680759e-12 4.039590e-13 -2.954223e-07))
0.249587      	((-4.432524e-10 2.140303e-09 -3.216115e-09) (-2.090582e-11 1.160066e-11 3.009674e-10)) ((3.335123e-13 1.005946e-13 -1.558324e-11) (-4.087720e-12 3.155734e-13 -2.588136e-07))
0.311504      	((-1.047843e-09 2.417181e-09 -3.565589e-09) (-1.509452e-11 6.466985e-13 4.600144e-10)) ((2.681667e-13 1.015771e-13 -1.388009e-11) (-3.032838e-12 1.591021e-13 -2.292648e-07))
0.385805      	((-1.191416e-09 3.335632e-09 -4.130968e-09) (-1.632090e-11 6.222973e-12 6.393933e-10)) ((1.760380e-13 1.038147e-13 -1.217263e-11) (-2.021114e-12 -7.302637e-14 -2.048294e-07))
0.474966      	((-1.957014e-09 4.101536e-09 -4.488157e-09) (-1.297321e-11 7.619897e-12 8.326298e-10)) ((-2.760252e-14 5.559720e-14 -1.070570e-11) (-1.054031e-13 -7.430105e-14 -1.840669e-07))
0.581959      	((-2.528590e-09 4.866734e-09 -5.021521e-09) (-1.339766e-11 2.686711e-11 1.046110e-09)) ((-1.284825e-13 5.203723e-14 -9.917659e-12) (3.175695e-12 5.034179e-13 -1.660177e-07))
0.710351      	((-2.804490e-09 4.820771e-09 -5.686029e-09) (1.784428e-11 5.621865e-11 1.299602e-09)) ((-2.316431e-13 9.787564e-14 -9.418066e-12) (5.240772e-12 7.952022e-13 -1.500707e-07))
0.864421      	((-3.235036e-09 3.888807e-09 -6.459729e-09) (7.990102e-11 8.905277e-12 1.588576e-09)) ((-3.946224e-13 3.109246e-14 -8.912496e-12) (3.382585e-12 -4.873656e-14 -1.358355e-07))
1.049306      	((-3.029915e-09 3.376848e-09 -7.237968e-09) (1.484401e-10 -1.018733e-10 1.931219e-09)) ((-5.199908e-13 -1.480961e-14 -8.424889e-12) (-6.058471e-13 -9.767824e-13 -1.230717e-07))
1.271167      	((-3.139152e-09 2.787845e-09 -8.094144e-09) (2.417904e-10 -2.235165e-10 2.341372e-09)) ((-5.994733e-13 -5.274338e-14 -8.032845e-12) (-4.324576e-12 -2.640952e-12 -1.116572e-07))
1.5374        	((-2.772311e-09 2.733538e-09 -8.823564e-09) (3.567079e-10 -3.607064e-10 2.785392e-09)) ((-5.144783e-13 -9.321610e-14 -7.681682e-12) (-8.085263e-12 -5.903081e-12 -1.015364e-07))
1.85688       	((-2.194097e-09 2.490006e-09 -9.463627e-09) (4.969659e-10 -4.919135e-10 3.213950e-09)) ((-4.678985e-13 -1.208873e-13 -7.281458e-12) (-1.269705e-11 -1.017386e-11 -9.265342e-08))
2.240256      	((-1.506912e-09 1.611744e-09 -1.045241e-08) (7.044431e-10 -6.292691e-10 3.667312e-09)) ((-5.293467e-13 -1.394198e-13 -6.842002e-12) (-1.775348e-11 -1.658913e-11 -8.491224e-08))
2.700307      	((-1.028689e-09 1.120743e-09 -1.132809e-08) (9.262595e-10 -8.254750e-10 4.157337e-09)) ((-5.192595e-13 -1.926042e-13 -6.426829e-12) (-2.447605e-11 -2.377274e-11 -7.817242e-08))
3.252369      	((-5.812709e-10 7.106099e-10 -1.249175e-08) (1.131824e-09 -1.038220e-09 4.692649e-09)) ((-4.414072e-13 -2.290162e-13 -5.975788e-12) (-3.029565e-11 -2.970317e-11 -7.226719e-08))
3.914842      	((-4.349978e-10 1.704308e-10 -1.386697e-08) (1.272299e-09 -1.239150e-09 5.304790e-09)) ((-3.470116e-13 -2.166393e-13 -5.530933e-12) (-3.336619e-11 -3.333191e-11 -6.703268e-08))
4.709811      	((-2.556249e-10 -3.945988e-10 -1.538450e-08) (1.304054e-09 -1.341091e-09 6.047751e-09)) ((-2.887437e-13 -1.768090e-13 -5.127257e-12) (-3.425439e-11 -3.407146e-11 -6.233086e-08))
5.663773      	((1.108979e-10 -4.159068e-11 -1.726195e-08) (1.253525e-09 -1.309192e-09 6.931734e-09)) ((-2.357430e-13 -1.617907e-13 -4.742615e-12) (-3.314844e-11 -3.285722e-11 -5.806023e-08))
6.808528      	((3.454786e-10 -1.757867e-10 -1.941793e-08) (1.148456e-09 -1.185543e-09 7.855320e-09)) ((-1.686827e-13 -1.574254e-13 -4.390518e-12) (-3.051096e-11 -3.068048e-11 -5.414899e-08))
8.182233      	((4.208711e-10 1.029758e-10 -2.111139e-08) (9.736105e-10 -1.009240e-09 8.842576e-09)) ((-1.264522e-13 -1.435632e-13 -4.058076e-12) (-2.736496e-11 -2.752338e-11 -5.054934e-08))
9.83068       	((1.823907e-10 1.272445e-10 -2.337225e-08) (7.877621e-10 -8.482539e-10 9.901579e-09)) ((-1.085805e-13 -1.777222e-13 -3.748443e-12) (-2.289115e-11 -2.287195e-11 -4.723261e-08))
11.808816     	((1.422405e-11 5.661265e-10 -2.559365e-08) (6.047044e-10 -6.996774e-10 1.100222e-08)) ((-2.566613e-14 -1.679127e-13 -3.460881e-12) (-1.644911e-11 -1.837495e-11 -4.417514e-08))
14.182579     	((-4.197301e-12 4.897766e-10 -2.797599e-08) (4.640883e-10 -5.533316e-10 1.221111e-08)) ((8.481734e-14 -1.684147e-13 -3.194993e-12) (-1.144756e-11 -1.449334e-11 -4.136163e-08))
17.031095     	((-2.638815e-10 2.881602e-10 -3.054997e-08) (3.387777e-10 -4.321956e-10 1.348371e-08)) ((1.422230e-13 -1.670886e-13 -2.952525e-12) (-8.934069e-12 -1.093910e-11 -3.878260e-08))
20.449314     	((-3.467337e-10 4.663317e-10 -3.332381e-08) (2.596194e-10 -3.531690e-10 1.478290e-08)) ((1.723344e-13 -1.841540e-13 -2.736640e-12) (-7.704487e-12 -8.725954e-12 -3.643069e-08))
24.551176     	((-5.265061e-10 2.770570e-10 -3.649784e-08) (2.462137e-10 -3.323654e-10 1.613396e-08)) ((2.049648e-13 -2.116334e-13 -2.548525e-12) (-8.153394e-12 -8.047419e-12 -3.428957e-08))
29.473411     	((-5.557753e-10 2.865483e-10 -3.972153e-08) (2.660865e-10 -3.592176e-10 1.759017e-08)) ((2.123726e-13 -2.329665e-13 -2.382131e-12) (-9.442448e-12 -8.394291e-12 -3.233972e-08))
35.380094     	((-6.037611e-10 2.220546e-10 -4.329767e-08) (3.175963e-10 -4.161507e-10 1.917384e-08)) ((2.157743e-13 -2.573045e-13 -2.233380e-12) (-1.146738e-11 -9.008182e-12 -3.056373e-08))
42.468112     	((-5.440346e-10 2.031559e-10 -4.698818e-08) (3.753105e-10 -4.889415e-10 2.093647e-08)) ((2.157791e-13 -2.802363e-13 -2.096720e-12) (-1.372204e-11 -9.902651e-12 -2.894536e-08))
50.973735     	((-5.919548e-10 1.048848e-10 -5.045532e-08) (4.238457e-10 -5.656617e-10 2.289130e-08)) ((2.017663e-13 -3.078575e-13 -1.974014e-12) (-1.567773e-11 -1.076777e-11 -2.746954e-08))
61.180482     	((-5.388627e-10 2.267888e-11 -5.390666e-08) (4.589717e-10 -6.388361e-10 2.505925e-08)) ((1.862089e-13 -3.285217e-13 -1.857941e-12) (-1.731220e-11 -1.116700e-11 -2.612227e-08))
73.428578     	((-5.423529e-10 -1.462285e-10 -5.721824e-08) (4.696146e-10 -7.044887e-10 2.740765e-08)) ((1.778229e-13 -3.434506e-13 -1.755511e-12) (-1.927181e-11 -1.087607e-11 -2.489260e-08))
88.126294     	((-5.084360e-10 -3.047339e-10 -6.038901e-08) (4.663030e-10 -7.588791e-10 2.986001e-08)) ((1.722998e-13 -3.461633e-13 -1.662542e-12) (-2.160855e-11 -1.039986e-11 -2.377194e-08))
105.763553    	((-5.162250e-10 -4.133311e-10 -6.357220e-08) (4.489861e-10 -8.057249e-10 3.234383e-08)) ((1.620578e-13 -3.431521e-13 -1.581528e-12) (-2.353630e-11 -9.618733e-12 -2.275210e-08))
126.928263    	((-4.937058e-10 -4.664197e-10 -6.684640e-08) (4.210008e-10 -8.358957e-10 3.482959e-08)) ((1.492597e-13 -3.393829e-13 -1.508233e-12) (-2.459133e-11 -8.962910e-12 -2.182565e-08))
152.325916    	((-5.281750e-10 -5.113591e-10 -7.002786e-08) (3.823784e-10 -8.485676e-10 3.733012e-08)) ((1.488333e-13 -3.444994e-13 -1.439357e-12) (-2.535100e-11 -7.809653e-12 -2.098451e-08))
182.803099    	((-5.260609e-10 -5.233906e-10 -7.318443e-08) (3.433594e-10 -8.557771e-10 3.984891e-08)) ((1.491980e-13 -3.522937e-13 -1.376074e-12) (-2.577394e-11 -6.249181e-12 -2.022073e-08))
219.375719    	((-5.478187e-10 -5.318586e-10 -7.637924e-08) (3.024409e-10 -8.490807e-10 4.239306e-08)) ((1.490510e-13 -3.583120e-13 -1.318600e-12) (-2.568439e-11 -4.700485e-12 -1.952723e-08))
263.262863    	((-5.675672e-10 -5.290034e-10 -7.954440e-08) (2.575265e-10 -8.331040e-10 4.497269e-08)) ((1.455956e-13 -3.703697e-13 -1.266414e-12) (-2.517552e-11 -3.152207e-12 -1.889763e-08))
315.927436    	((-5.388283e-10 -4.473741e-10 -8.260182e-08) (2.154667e-10 -8.025745e-10 4.760168e-08)) ((1.398766e-13 -3.889360e-13 -1.214549e-12) (-2.399485e-11 -1.567358e-12 -1.832651e-08))
378.775189    	((-5.409336e-10 -3.893890e-10 -8.546886e-08) (1.745961e-10 -7.589625e-10 5.027737e-08)) ((1.346279e-13 -4.108248e-13 -1.167335e-12) (-2.236180e-11 2.068627e-13 -1.781045e-08))
451.80448     	((-5.426138e-10 -3.624219e-10 -8.819044e-08) (1.326618e-10 -7.039062e-10 5.298219e-08)) ((1.315739e-13 -4.282896e-13 -1.126971e-12) (-2.044291e-11 2.041130e-12 -1.734772e-08))
535.013668    	((-5.234435e-10 -3.333747e-10 -9.070527e-08) (9.280375e-11 -6.406873e-10 5.569373e-08)) ((1.307873e-13 -4.426344e-13 -1.091624e-12) (-1.810478e-11 3.612885e-12 -1.693523e-08))
628.401128    	((-5.203765e-10 -3.005348e-10 -9.303201e-08) (6.169557e-11 -5.781703e-10 5.839057e-08)) ((1.310510e-13 -4.577545e-13 -1.060046e-12) (-1.573320e-11 4.845277e-12 -1.656935e-08))
730.167307    	((-5.060407e-10 -2.891786e-10 -9.511431e-08) (3.663014e-11 -5.181032e-10 6.103048e-08)) ((1.312408e-13 -4.730463e-13 -1.031867e-12) (-1.348806e-11 5.631434e-12 -1.624647e-08))
831.915726    	((-5.011376e-10 -2.798182e-10 -9.701930e-08) (1.638680e-11 -4.645019e-10 6.355347e-08)) ((1.313290e-13 -4.849834e-13 -1.005176e-12) (-1.141705e-11 5.955780e-12 -1.596457e-08))
933.648291    	((-4.862925e-10 -2.840968e-10 -9.865863e-08) (7.201063e-12 -4.176542e-10 6.593481e-08)) ((1.325566e-13 -4.947296e-13 -9.809966e-13) (-9.578752e-12 5.876017e-12 -1.571901e-08))
1035.364635   	((-4.733314e-10 -2.849395e-10 -1.000931e-07) (9.901360e-12 -3.726716e-10 6.816428e-08)) ((1.297040e-13 -5.029125e-13 -9.598099e-13) (-7.937985e-12 5.526064e-12 -1.550565e-08))
1137.068959   	((-4.625745e-10 -2.855159e-10 -1.013241e-07) (1.337369e-11 -3.343924e-10 7.025674e-08)) ((1.260292e-13 -5.109258e-13 -9.411611e-13) (-6.530770e-12 5.017412e-12 -1.531972e-08))
1238.761407   	((-4.583717e-10 -2.931563e-10 -1.023877e-07) (2.013707e-11 -3.028655e-10 7.222028e-08)) ((1.232170e-13 -5.193336e-13 -9.242144e-13) (-5.481814e-12 4.515787e-12 -1.515754e-08))
1340.444209   	((-4.552250e-10 -3.012633e-10 -1.033063e-07) (2.619421e-11 -2.759073e-10 7.406631e-08)) ((1.206001e-13 -5.262390e-13 -9.093233e-13) (-4.677445e-12 4.051507e-12 -1.501570e-08))
1442.120093   	((-4.501122e-10 -3.041144e-10 -1.041195e-07) (3.521024e-11 -2.548515e-10 7.580095e-08)) ((1.177196e-13 -5.324249e-13 -8.962703e-13) (-4.051208e-12 3.594878e-12 -1.489139e-08))
1543.789252   	((-4.451552e-10 -3.041753e-10 -1.048477e-07) (4.271153e-11 -2.381106e-10 7.743231e-08)) ((1.152355e-13 -5.388628e-13 -8.847372e-13) (-3.602143e-12 3.180936e-12 -1.478208e-08))
1645.45407    	((-4.358925e-10 -3.043285e-10 -1.054971e-07) (5.161309e-11 -2.271723e-10 7.896686e-08)) ((1.134290e-13 -5.452513e-13 -8.743538e-13) (-3.300529e-12 2.809153e-12 -1.468566e-08))
1747.116949   	((-4.290558e-10 -3.071787e-10 -1.060752e-07) (6.015710e-11 -2.178888e-10 8.041306e-08)) ((1.118025e-13 -5.515190e-13 -8.650991e-13) (-3.086179e-12 2.492191e-12 -1.460029e-08))
1848.780075   	((-4.252760e-10 -3.072162e-10 -1.065954e-07) (6.720930e-11 -2.103581e-10 8.177770e-08)) ((1.103582e-13 -5.568405e-13 -8.570644e-13) (-2.923053e-12 2.225171e-12 -1.452458e-08))
1950.44327    	((-4.228715e-10 -3.034393e-10 -1.070649e-07) (7.301782e-11 -2.045295e-10 8.306673e-08)) ((1.087988e-13 -5.616148e-13 -8.498391e-13) (-2.777761e-12 1.956792e-12 -1.445728e-08))
2052.108043   	((-4.194805e-10 -2.994632e-10 -1.074826e-07) (7.856031e-11 -1.993033e-10 8.428666e-08)) ((1.080142e-13 -5.662593e-13 -8.433104e-13) (-2.625147e-12 1.687042e-12 -1.439734e-08))
2153.776171   	((-4.123647e-10 -2.944936e-10 -1.078541e-07) (8.332198e-11 -1.944767e-10 8.544122e-08)) ((1.076413e-13 -5.702789e-13 -8.373546e-13) (-2.474720e-12 1.414615e-12 -1.434386e-08))
2255.449168   	((-4.051152e-10 -2.933265e-10 -1.081910e-07) (8.774643e-11 -1.905748e-10 8.653378e-08)) ((1.076751e-13 -5.741676e-13 -8.318013e-13) (-2.335519e-12 1.159214e-12 -1.429605e-08))
2357.128368   	((-4.007630e-10 -2.921328e-10 -1.084944e-07) (9.182914e-11 -1.872919e-10 8.756715e-08)) ((1.079054e-13 -5.781518e-13 -8.265638e-13) (-2.205504e-12 9.392642e-13 -1.425323e-08))
