# Forces      
# CofR        : (0.000000e+00 0.000000e+00 0.000000e+00)
# Time        forces(pressure viscous)	moments(pressure viscous)
0             	((0.000000e+00 0.000000e+00 0.000000e+00) (0.000000e+00 0.000000e+00 0.000000e+00)) ((0.000000e+00 0.000000e+00 0.000000e+00) (0.000000e+00 0.000000e+00 0.000000e+00))
0.012         	((5.901385e-11 -1.817651e-06 -2.944388e-07) (4.451835e-13 -4.181068e-06 -9.231513e-12)) ((-2.656855e-10 -9.640340e-13 2.433890e-12) (-2.782316e-07 -2.755617e-14 -4.490730e-13))
0.0264        	((1.080678e-09 -2.443044e-06 -6.237230e-07) (2.393924e-12 -3.829902e-06 -2.909730e-11)) ((1.203312e-10 -2.095364e-12 1.078497e-12) (-2.551395e-07 -7.261862e-14 -4.608357e-13))
0.04368       	((-8.030061e-10 -1.651950e-06 -3.385507e-07) (2.900675e-12 -3.467560e-06 -6.788896e-11)) ((8.919882e-11 -1.116708e-12 1.215281e-12) (-2.313826e-07 -2.483090e-14 -8.685390e-13))
0.064416      	((9.405339e-10 -1.867619e-06 -4.380774e-07) (3.903449e-12 -3.102101e-06 -1.281775e-10)) ((1.764035e-10 -1.482426e-12 7.675766e-13) (-2.075033e-07 3.471892e-14 -3.548449e-13))
0.0892992     	((-4.298164e-10 -1.378739e-06 -2.924821e-07) (3.777813e-12 -2.744014e-06 -2.129120e-10)) ((1.257389e-10 -9.892641e-13 5.080500e-13) (-1.841860e-07 9.697352e-14 9.892071e-13))
0.119159      	((3.561010e-10 -1.413774e-06 -3.176493e-07) (1.091450e-12 -2.404780e-06 -3.173772e-10)) ((1.539799e-10 -1.073317e-12 2.668919e-13) (-1.621982e-07 1.109899e-13 1.557576e-12))
0.154991      	((-2.029958e-10 -1.065300e-06 -2.271885e-07) (-1.987234e-12 -2.094986e-06 -4.419187e-10)) ((1.074954e-10 -7.963966e-13 1.192802e-13) (-1.420109e-07 1.275043e-13 1.789246e-12))
0.197989      	((9.372188e-11 -1.051806e-06 -2.292314e-07) (-3.331359e-12 -1.820906e-06 -5.885206e-10)) ((1.214612e-10 -7.970676e-13 1.803758e-13) (-1.241353e-07 1.298263e-13 1.933121e-12))
0.249587      	((-3.705062e-11 -8.176792e-07 -1.782110e-07) (-5.021624e-12 -1.587166e-06 -7.486039e-10)) ((8.706579e-11 -6.264545e-13 1.504236e-13) (-1.087774e-07 3.556094e-14 1.824838e-12))
0.311504      	((-1.133900e-11 -7.938478e-07 -1.731583e-07) (-4.657979e-12 -1.392676e-06 -8.975628e-10)) ((9.607033e-11 -6.177630e-13 2.660270e-13) (-9.594003e-08 -5.426533e-14 1.469306e-12))
0.385805      	((3.502399e-11 -6.402722e-07 -1.442675e-07) (-4.482138e-12 -1.231748e-06 -1.048336e-09)) ((7.170213e-11 -5.116590e-13 1.737572e-13) (-8.530546e-08 -1.790626e-13 8.328155e-13))
0.474966      	((6.493042e-12 -6.203341e-07 -1.367630e-07) (-4.566713e-12 -1.098343e-06 -1.143770e-09)) ((7.800517e-11 -5.088237e-13 2.304831e-13) (-7.650305e-08 -1.253467e-13 2.691555e-13))
0.581959      	((6.333158e-11 -5.169982e-07 -1.181570e-07) (-3.448073e-12 -9.858328e-07 -1.246171e-09)) ((6.031789e-11 -4.168357e-13 1.567182e-13) (-6.907349e-08 -5.665514e-14 2.077406e-13))
0.710351      	((2.450536e-11 -5.003279e-07 -1.102849e-07) (-2.624017e-12 -8.890868e-07 -1.278328e-09)) ((6.504717e-11 -4.198689e-13 2.325214e-13) (-6.270626e-08 -8.973729e-14 6.776271e-14))
0.864421      	((7.400050e-11 -4.263468e-07 -9.787058e-08) (-1.130039e-12 -8.040358e-07 -1.354018e-09)) ((5.259888e-11 -3.566664e-13 1.586593e-13) (-5.711413e-08 -1.112868e-13 3.091886e-13))
1.049306      	((4.508831e-11 -4.093650e-07 -9.130427e-08) (-6.110706e-12 -7.283539e-07 -1.355395e-09)) ((5.624724e-11 -3.528702e-13 1.323886e-13) (-5.215812e-08 -7.409702e-14 8.059769e-13))
1.271167      	((7.290250e-11 -3.522558e-07 -8.220040e-08) (-5.789125e-12 -6.601488e-07 -1.457037e-09)) ((4.771336e-11 -3.053971e-13 -1.027439e-15) (-4.769711e-08 9.448085e-14 9.966246e-13))
1.5374        	((8.565720e-11 -3.339279e-07 -7.670793e-08) (-6.289841e-13 -5.985343e-07 -1.359639e-09)) ((4.962324e-11 -2.955578e-13 -1.916852e-14) (-4.367071e-08 4.084367e-13 1.047715e-12))
1.85688       	((7.997203e-11 -2.898898e-07 -6.990902e-08) (-4.025342e-12 -5.429336e-07 -1.445876e-09)) ((4.351743e-11 -2.639355e-13 -8.190263e-14) (-4.004785e-08 6.816923e-13 1.243251e-12))
2.240256      	((4.056830e-11 -2.708514e-07 -6.611365e-08) (1.957031e-12 -4.930496e-07 -1.549188e-09)) ((4.392137e-11 -2.592506e-13 -6.724548e-14) (-3.679668e-08 1.190928e-12 1.573325e-12))
2.700307      	((3.268995e-11 -2.382245e-07 -6.153215e-08) (6.182894e-12 -4.489377e-07 -1.541639e-09)) ((3.970501e-11 -2.274033e-13 -1.028917e-13) (-3.392262e-08 1.386291e-12 1.834902e-12))
3.252369      	((6.397279e-11 -2.208972e-07 -5.892892e-08) (7.573925e-12 -4.100457e-07 -1.570568e-09)) ((3.956446e-11 -2.556296e-13 -8.103150e-14) (-3.138573e-08 1.455810e-12 1.769920e-12))
3.914842      	((2.551234e-11 -1.977751e-07 -5.549062e-08) (1.116658e-11 -3.758623e-07 -1.579265e-09)) ((3.721346e-11 -2.015355e-13 -8.287345e-14) (-2.916260e-08 1.655581e-12 9.837076e-13))
4.709811      	((-1.914048e-12 -1.828701e-07 -5.339268e-08) (9.172461e-12 -3.457637e-07 -1.650298e-09)) ((3.657306e-11 -2.506869e-13 -7.653835e-14) (-2.721092e-08 2.191871e-12 -1.194807e-14))
5.663773      	((5.164585e-11 -1.654841e-07 -5.049346e-08) (7.396039e-12 -3.190311e-07 -1.791913e-09)) ((3.504589e-11 -2.067204e-13 -7.950889e-14) (-2.548531e-08 2.498079e-12 -5.214325e-13))
6.808528      	((7.815640e-11 -1.527063e-07 -4.800190e-08) (9.487213e-12 -2.950691e-07 -1.953714e-09)) ((3.399297e-11 -2.651340e-13 -9.042448e-14) (-2.394254e-08 2.402903e-12 -6.751560e-13))
8.182233      	((1.295427e-10 -1.391867e-07 -4.539192e-08) (1.544849e-11 -2.733231e-07 -2.155890e-09)) ((3.295412e-11 -2.418681e-13 -9.483097e-14) (-2.255086e-08 2.219795e-12 -5.471225e-13))
9.83068       	((8.573708e-11 -1.278462e-07 -4.309424e-08) (2.087012e-11 -2.534263e-07 -2.346966e-09)) ((3.210962e-11 -2.815986e-13 -9.950680e-14) (-2.128633e-08 2.099129e-12 -3.173149e-13))
11.808816     	((1.019334e-10 -1.169368e-07 -4.116828e-08) (2.504243e-11 -2.351635e-07 -2.518502e-09)) ((3.132318e-11 -2.518768e-13 -9.928406e-14) (-2.013209e-08 2.247104e-12 -1.358804e-13))
14.182579     	((8.159424e-11 -1.075178e-07 -3.993293e-08) (2.259559e-11 -2.183710e-07 -2.672190e-09)) ((3.064749e-11 -2.626357e-13 -1.015103e-13) (-1.907581e-08 2.517364e-12 -1.319652e-14))
17.031095     	((9.310397e-11 -9.857953e-08 -3.897818e-08) (2.345581e-11 -2.029113e-07 -2.786023e-09)) ((3.006125e-11 -2.582694e-13 -1.002304e-13) (-1.810979e-08 2.235475e-12 1.262946e-13))
20.449314     	((8.352634e-11 -9.056315e-08 -3.869390e-08) (2.709467e-11 -1.887115e-07 -2.852921e-09)) ((2.953847e-11 -2.677239e-13 -1.019155e-13) (-1.722752e-08 1.770700e-12 2.235592e-13))
24.551176     	((6.806683e-11 -8.300352e-08 -3.852282e-08) (2.878928e-11 -1.757118e-07 -2.848463e-09)) ((2.909724e-11 -2.622954e-13 -1.044177e-13) (-1.642519e-08 1.782678e-12 2.198523e-13))
29.473411     	((5.179215e-11 -7.620531e-08 -3.837500e-08) (2.863322e-11 -1.638411e-07 -2.820097e-09)) ((2.871194e-11 -2.651372e-13 -1.068913e-13) (-1.569766e-08 1.930158e-12 2.212334e-13))
35.380094     	((5.907910e-11 -6.999229e-08 -3.826893e-08) (2.833502e-11 -1.530195e-07 -2.789714e-09)) ((2.839120e-11 -2.665173e-13 -1.084265e-13) (-1.503907e-08 2.060056e-12 2.082566e-13))
42.468112     	((6.208161e-11 -6.439822e-08 -3.832091e-08) (2.760183e-11 -1.431547e-07 -2.774888e-09)) ((2.810340e-11 -2.703139e-13 -1.088134e-13) (-1.444278e-08 2.026419e-12 2.466098e-13))
50.973735     	((5.766723e-11 -5.936540e-08 -3.836496e-08) (2.553448e-11 -1.341643e-07 -2.782628e-09)) ((2.787138e-11 -2.740813e-13 -1.096353e-13) (-1.390329e-08 1.761812e-12 2.054462e-13))
61.180482     	((5.150361e-11 -5.484983e-08 -3.845042e-08) (2.487345e-11 -1.259761e-07 -2.817438e-09)) ((2.766626e-11 -2.771245e-13 -1.093661e-13) (-1.341561e-08 1.481034e-12 5.454885e-14))
73.428578     	((5.327447e-11 -5.080597e-08 -3.856340e-08) (2.401136e-11 -1.185270e-07 -2.875826e-09)) ((2.749816e-11 -2.798317e-13 -1.090318e-13) (-1.297607e-08 1.236541e-12 -1.411704e-13))
88.126294     	((4.819748e-11 -4.723589e-08 -3.882321e-08) (2.343274e-11 -1.117629e-07 -2.963922e-09)) ((2.735522e-11 -2.830445e-13 -1.094412e-13) (-1.258081e-08 1.082739e-12 -3.362827e-13))
105.763553    	((4.525968e-11 -4.407737e-08 -3.908783e-08) (2.364795e-11 -1.056345e-07 -3.083477e-09)) ((2.724085e-11 -2.857374e-13 -1.102197e-13) (-1.222643e-08 9.454083e-13 -6.429163e-13))
126.928263    	((4.493336e-11 -4.133997e-08 -3.950707e-08) (2.362095e-11 -1.001027e-07 -3.236794e-09)) ((2.714879e-11 -2.882846e-13 -1.103340e-13) (-1.191020e-08 7.910399e-13 -9.538227e-13))
152.325916    	((4.608313e-11 -3.900761e-08 -3.999690e-08) (2.320187e-11 -9.513137e-08 -3.424338e-09)) ((2.708154e-11 -2.919602e-13 -1.101928e-13) (-1.162958e-08 6.862672e-13 -1.153612e-12))
182.803099    	((4.362357e-11 -3.702760e-08 -4.052782e-08) (2.196603e-11 -9.068688e-08 -3.650379e-09)) ((2.703229e-11 -2.961854e-13 -1.097380e-13) (-1.138198e-08 6.175100e-13 -1.229460e-12))
219.375719    	((4.154210e-11 -3.537227e-08 -4.107169e-08) (2.113574e-11 -8.672964e-08 -3.927913e-09)) ((2.699284e-11 -3.002049e-13 -1.095849e-13) (-1.116458e-08 5.443542e-13 -1.222166e-12))
263.262863    	((3.747680e-11 -3.403288e-08 -4.173070e-08) (2.076117e-11 -8.322811e-08 -4.259510e-09)) ((2.696415e-11 -3.042022e-13 -1.094333e-13) (-1.097480e-08 4.544771e-13 -1.161735e-12))
315.927436    	((3.048667e-11 -3.299577e-08 -4.243542e-08) (2.048706e-11 -8.015905e-08 -4.647950e-09)) ((2.694566e-11 -3.077077e-13 -1.092752e-13) (-1.081051e-08 3.530025e-13 -1.069544e-12))
379.124923    	((2.342336e-11 -3.222245e-08 -4.314057e-08) (2.011845e-11 -7.750386e-08 -5.093795e-09)) ((2.693279e-11 -3.095892e-13 -1.092743e-13) (-1.066995e-08 2.675961e-13 -9.305261e-13))
454.961908    	((2.209592e-11 -3.168511e-08 -4.389227e-08) (1.939510e-11 -7.524665e-08 -5.587387e-09)) ((2.692512e-11 -3.106973e-13 -1.089624e-13) (-1.055132e-08 2.345903e-13 -7.832542e-13))
544.566261    	((2.033871e-11 -3.135708e-08 -4.472997e-08) (1.919510e-11 -7.337825e-08 -6.116843e-09)) ((2.692310e-11 -3.124369e-13 -1.086288e-13) (-1.045306e-08 2.195575e-13 -6.597302e-13))
647.937772    	((1.931112e-11 -3.120892e-08 -4.552483e-08) (1.932256e-11 -7.188281e-08 -6.661199e-09)) ((2.692291e-11 -3.137582e-13 -1.083991e-13) (-1.037351e-08 2.119214e-13 -5.582398e-13))
765.076295    	((1.853977e-11 -3.119563e-08 -4.624852e-08) (1.942468e-11 -7.073416e-08 -7.190419e-09)) ((2.692285e-11 -3.149330e-13 -1.082576e-13) (-1.031072e-08 2.131687e-13 -4.905110e-13))
895.981808    	((1.835326e-11 -3.126270e-08 -4.689313e-08) (1.928636e-11 -6.989332e-08 -7.673788e-09)) ((2.692248e-11 -3.160996e-13 -1.080993e-13) (-1.026262e-08 2.159535e-13 -4.553989e-13))
1033.653821   	((1.826548e-11 -3.136328e-08 -4.742378e-08) (1.884487e-11 -6.931369e-08 -8.083880e-09)) ((2.692457e-11 -3.172841e-13 -1.079072e-13) (-1.022728e-08 2.252595e-13 -4.429314e-13))
1171.330343   	((1.801721e-11 -3.144328e-08 -4.785134e-08) (1.853381e-11 -6.893560e-08 -8.408326e-09)) ((2.692793e-11 -3.183433e-13 -1.077229e-13) (-1.020230e-08 2.370597e-13 -4.271731e-13))
1309.012392   	((1.801647e-11 -3.149324e-08 -4.819971e-08) (1.846778e-11 -6.869875e-08 -8.652291e-09)) ((2.692980e-11 -3.190847e-13 -1.076113e-13) (-1.018512e-08 2.381839e-13 -4.190373e-13))
1446.699788   	((1.810691e-11 -3.151302e-08 -4.847623e-08) (1.849826e-11 -6.855276e-08 -8.829680e-09)) ((2.693080e-11 -3.196590e-13 -1.075510e-13) (-1.017344e-08 2.361613e-13 -4.191659e-13))
1584.391661   	((1.829033e-11 -3.150965e-08 -4.869863e-08) (1.854167e-11 -6.846065e-08 -8.957048e-09)) ((2.693119e-11 -3.200360e-13 -1.074500e-13) (-1.016546e-08 2.298959e-13 -4.172899e-13))
1722.087472   	((1.841224e-11 -3.149475e-08 -4.887973e-08) (1.858238e-11 -6.839864e-08 -9.049077e-09)) ((2.693131e-11 -3.203107e-13 -1.073449e-13) (-1.015991e-08 2.193582e-13 -4.132593e-13))
1859.78673    	((1.860543e-11 -3.147557e-08 -4.903104e-08) (1.859628e-11 -6.835301e-08 -9.117508e-09)) ((2.693125e-11 -3.205611e-13 -1.072702e-13) (-1.015592e-08 2.113759e-13 -4.078481e-13))
1997.488872   	((1.872289e-11 -3.145649e-08 -4.916052e-08) (1.859332e-11 -6.831657e-08 -9.170555e-09)) ((2.693121e-11 -3.207952e-13 -1.072198e-13) (-1.015293e-08 2.046392e-13 -4.030594e-13))
2135.193373   	((1.877234e-11 -3.143917e-08 -4.927228e-08) (1.857156e-11 -6.828595e-08 -9.213522e-09)) ((2.693123e-11 -3.210089e-13 -1.071770e-13) (-1.015063e-08 2.011224e-13 -4.002976e-13))
2272.899824   	((1.877783e-11 -3.142398e-08 -4.937031e-08) (1.850592e-11 -6.825963e-08 -9.249565e-09)) ((2.693128e-11 -3.212034e-13 -1.071405e-13) (-1.014882e-08 2.007512e-13 -3.994504e-13))
2410.607896   	((1.874079e-11 -3.141054e-08 -4.945693e-08) (1.844116e-11 -6.823682e-08 -9.280571e-09)) ((2.693135e-11 -3.213753e-13 -1.071121e-13) (-1.014736e-08 2.007344e-13 -3.991380e-13))
2548.317304   	((1.868939e-11 -3.139867e-08 -4.953357e-08) (1.837642e-11 -6.821708e-08 -9.307751e-09)) ((2.693146e-11 -3.215405e-13 -1.070864e-13) (-1.014618e-08 2.003953e-13 -3.994695e-13))
2686.027813   	((1.860015e-11 -3.138812e-08 -4.960166e-08) (1.831321e-11 -6.820003e-08 -9.331832e-09)) ((2.693157e-11 -3.216834e-13 -1.070616e-13) (-1.014522e-08 2.003667e-13 -4.007510e-13))
2823.739232   	((1.856377e-11 -3.137869e-08 -4.966187e-08) (1.825284e-11 -6.818535e-08 -9.353307e-09)) ((2.693167e-11 -3.218122e-13 -1.070532e-13) (-1.014442e-08 2.012464e-13 -4.031005e-13))
2961.451411   	((1.850472e-11 -3.137030e-08 -4.971554e-08) (1.818802e-11 -6.817274e-08 -9.372529e-09)) ((2.693176e-11 -3.219193e-13 -1.070418e-13) (-1.014375e-08 2.032017e-13 -4.062617e-13))
3099.164232   	((1.844602e-11 -3.136280e-08 -4.976362e-08) (1.811917e-11 -6.816190e-08 -9.389779e-09)) ((2.693184e-11 -3.220131e-13 -1.070327e-13) (-1.014320e-08 2.052698e-13 -4.098171e-13))
3236.877601   	((1.838031e-11 -3.135612e-08 -4.980677e-08) (1.806056e-11 -6.815257e-08 -9.405288e-09)) ((2.693192e-11 -3.220956e-13 -1.070276e-13) (-1.014273e-08 2.073347e-13 -4.136968e-13))
3374.59144    	((1.834021e-11 -3.135016e-08 -4.984541e-08) (1.800578e-11 -6.814452e-08 -9.419252e-09)) ((2.693199e-11 -3.221696e-13 -1.070229e-13) (-1.014234e-08 2.093837e-13 -4.175620e-13))
3512.30569    	((1.828972e-11 -3.134479e-08 -4.988025e-08) (1.795703e-11 -6.813754e-08 -9.431847e-09)) ((2.693205e-11 -3.222326e-13 -1.070173e-13) (-1.014200e-08 2.109246e-13 -4.213304e-13))
3650.020299   	((1.825749e-11 -3.133999e-08 -4.991160e-08) (1.791462e-11 -6.813147e-08 -9.443226e-09)) ((2.693211e-11 -3.222893e-13 -1.070150e-13) (-1.014171e-08 2.126768e-13 -4.252085e-13))
3787.735226   	((1.820951e-11 -3.133567e-08 -4.994012e-08) (1.787824e-11 -6.812618e-08 -9.453515e-09)) ((2.693216e-11 -3.223437e-13 -1.070129e-13) (-1.014146e-08 2.143947e-13 -4.290819e-13))
3925.450435   	((1.816782e-11 -3.133179e-08 -4.996601e-08) (1.784576e-11 -6.812155e-08 -9.462826e-09)) ((2.693221e-11 -3.223932e-13 -1.070099e-13) (-1.014125e-08 2.158614e-13 -4.327183e-13))
4063.165897   	((1.812039e-11 -3.132829e-08 -4.998948e-08) (1.781683e-11 -6.811748e-08 -9.471268e-09)) ((2.693225e-11 -3.224372e-13 -1.070073e-13) (-1.014106e-08 2.171888e-13 -4.360554e-13))
4200.881586   	((1.808097e-11 -3.132511e-08 -5.001077e-08) (1.778620e-11 -6.811389e-08 -9.478931e-09)) ((2.693229e-11 -3.224769e-13 -1.070051e-13) (-1.014090e-08 2.185007e-13 -4.388761e-13))
4338.59748    	((1.804804e-11 -3.132223e-08 -5.003009e-08) (1.775429e-11 -6.811071e-08 -9.485895e-09)) ((2.693232e-11 -3.225136e-13 -1.070018e-13) (-1.014075e-08 2.198489e-13 -4.412204e-13))
4476.313558   	((1.801890e-11 -3.131963e-08 -5.004765e-08) (1.772099e-11 -6.810789e-08 -9.492232e-09)) ((2.693235e-11 -3.225473e-13 -1.069999e-13) (-1.014062e-08 2.212197e-13 -4.431432e-13))
4614.029804   	((1.798442e-11 -3.131725e-08 -5.006362e-08) (1.768751e-11 -6.810538e-08 -9.498000e-09)) ((2.693238e-11 -3.225802e-13 -1.069984e-13) (-1.014051e-08 2.225523e-13 -4.448442e-13))
4751.746201   	((1.795691e-11 -3.131507e-08 -5.007807e-08) (1.765577e-11 -6.810313e-08 -9.503255e-09)) ((2.693240e-11 -3.226085e-13 -1.069967e-13) (-1.014041e-08 2.238263e-13 -4.463689e-13))
4889.462737   	((1.792735e-11 -3.131311e-08 -5.009135e-08) (1.762593e-11 -6.810113e-08 -9.508049e-09)) ((2.693243e-11 -3.226334e-13 -1.069956e-13) (-1.014032e-08 2.250291e-13 -4.477515e-13))
5027.179398   	((1.790290e-11 -3.131132e-08 -5.010347e-08) (1.759934e-11 -6.809932e-08 -9.512427e-09)) ((2.693245e-11 -3.226555e-13 -1.069951e-13) (-1.014024e-08 2.261969e-13 -4.490523e-13))
5164.896172   	((1.788675e-11 -3.130970e-08 -5.011455e-08) (1.757442e-11 -6.809770e-08 -9.516429e-09)) ((2.693247e-11 -3.226747e-13 -1.069936e-13) (-1.014017e-08 2.272658e-13 -4.502139e-13))
5302.613051   	((1.786541e-11 -3.130820e-08 -5.012471e-08) (1.755101e-11 -6.809624e-08 -9.520092e-09)) ((2.693249e-11 -3.226928e-13 -1.069943e-13) (-1.014011e-08 2.282465e-13 -4.513201e-13))
5440.330024   	((1.784252e-11 -3.130684e-08 -5.013399e-08) (1.752956e-11 -6.809492e-08 -9.523444e-09)) ((2.693251e-11 -3.227087e-13 -1.069932e-13) (-1.014005e-08 2.291117e-13 -4.523519e-13))
5578.047084   	((1.781914e-11 -3.130559e-08 -5.014248e-08) (1.750964e-11 -6.809372e-08 -9.526518e-09)) ((2.693252e-11 -3.227225e-13 -1.069919e-13) (-1.013999e-08 2.299187e-13 -4.533170e-13))
5715.764224   	((1.779820e-11 -3.130445e-08 -5.015028e-08) (1.749062e-11 -6.809264e-08 -9.529336e-09)) ((2.693254e-11 -3.227347e-13 -1.069904e-13) (-1.013995e-08 2.306744e-13 -4.541944e-13))
5853.481436   	((1.778337e-11 -3.130341e-08 -5.015744e-08) (1.747363e-11 -6.809166e-08 -9.531923e-09)) ((2.693255e-11 -3.227458e-13 -1.069894e-13) (-1.013990e-08 2.313719e-13 -4.549832e-13))
5991.198714   	((1.777304e-11 -3.130245e-08 -5.016400e-08) (1.745805e-11 -6.809077e-08 -9.534298e-09)) ((2.693256e-11 -3.227557e-13 -1.069884e-13) (-1.013987e-08 2.320206e-13 -4.556806e-13))
