# Forces      
# CofR        : (0.000000e+00 0.000000e+00 0.000000e+00)
# Time        forces(pressure viscous)	moments(pressure viscous)
0             	((0.000000e+00 0.000000e+00 0.000000e+00) (0.000000e+00 0.000000e+00 0.000000e+00)) ((0.000000e+00 0.000000e+00 0.000000e+00) (0.000000e+00 0.000000e+00 0.000000e+00))
0.012         	((1.952500e-10 -4.565918e-06 -7.397462e-07) (9.306132e-13 -1.050240e-05 -5.848633e-11)) ((-6.681440e-10 -2.433029e-12 6.121979e-12) (-6.988881e-07 -7.630103e-14 -1.125004e-12))
0.0264        	((2.788434e-09 -6.136703e-06 -1.567223e-06) (6.043388e-12 -9.620396e-06 -1.855241e-10)) ((3.011994e-10 -5.288687e-12 2.726625e-12) (-6.408900e-07 -2.140797e-13 -1.145525e-12))
0.04368       	((-1.963614e-09 -4.149513e-06 -8.512880e-07) (6.680726e-12 -8.710608e-06 -4.316880e-10)) ((2.225419e-10 -2.870151e-12 3.074663e-12) (-5.812431e-07 -8.758845e-14 -2.191240e-12))
0.064416      	((2.389109e-09 -4.691163e-06 -1.102002e-06) (8.527284e-12 -7.793507e-06 -8.168806e-10)) ((4.412562e-10 -3.824419e-12 1.955019e-12) (-5.213254e-07 9.749414e-15 -1.001377e-12))
0.0892992     	((-9.693028e-10 -3.463475e-06 -7.369654e-07) (8.003565e-12 -6.895666e-06 -1.348025e-09)) ((3.138096e-10 -2.601916e-12 1.286928e-12) (-4.628729e-07 1.162533e-13 2.315230e-12))
0.119159      	((9.593540e-10 -3.550959e-06 -8.012595e-07) (-3.145755e-12 -6.046006e-06 -1.992978e-09)) ((3.843455e-10 -2.804922e-12 6.770959e-13) (-4.078212e-07 1.845274e-13 3.880083e-12))
0.154991      	((-3.992692e-10 -2.678467e-06 -5.747266e-07) (-1.752501e-11 -5.271196e-06 -2.771363e-09)) ((2.679259e-10 -2.156054e-12 2.954820e-13) (-3.573602e-07 3.001943e-13 4.633905e-12))
0.197989      	((3.033877e-10 -2.645633e-06 -5.815242e-07) (-2.828801e-11 -4.586065e-06 -3.696653e-09)) ((3.036610e-10 -2.138999e-12 4.614905e-13) (-3.126996e-07 5.179395e-13 5.095652e-12))
0.249587      	((5.285282e-11 -2.059470e-06 -4.538293e-07) (-4.239858e-11 -4.000997e-06 -4.706342e-09)) ((2.178528e-10 -1.743418e-12 4.116466e-13) (-2.742890e-07 2.712225e-13 4.872807e-12))
0.311504      	((7.149579e-11 -1.999884e-06 -4.429898e-07) (-3.442583e-11 -3.513456e-06 -5.643463e-09)) ((2.411615e-10 -1.707183e-12 7.075854e-13) (-2.421160e-07 -3.290342e-13 4.063205e-12))
0.385805      	((2.113742e-10 -1.614957e-06 -3.707631e-07) (-3.260342e-11 -3.108983e-06 -6.590138e-09)) ((1.805062e-10 -1.456705e-12 4.823687e-13) (-2.153886e-07 -9.981031e-13 2.436484e-12))
0.474966      	((1.404511e-10 -1.563168e-06 -3.538742e-07) (-2.887213e-11 -2.772513e-06 -7.180071e-09)) ((1.968576e-10 -1.467938e-12 6.132982e-13) (-1.931771e-07 -1.130364e-12 1.027160e-12))
0.581959      	((2.301974e-10 -1.303849e-06 -3.070050e-07) (-2.321287e-11 -2.487876e-06 -7.830683e-09)) ((1.530418e-10 -1.220801e-12 4.202456e-13) (-1.743726e-07 -7.692913e-13 5.335805e-13))
0.710351      	((2.746635e-10 -1.258584e-06 -2.895826e-07) (-1.534532e-11 -2.242743e-06 -8.012753e-09)) ((1.651623e-10 -1.236439e-12 5.805967e-13) (-1.582231e-07 -1.196593e-12 -2.932637e-13))
0.864421      	((2.639590e-10 -1.075252e-06 -2.581678e-07) (-1.102429e-11 -2.027307e-06 -8.498719e-09)) ((1.353129e-10 -1.075928e-12 3.859279e-13) (-1.440501e-07 -1.304198e-12 1.613964e-13))
1.049306      	((3.229824e-10 -1.026750e-06 -2.444136e-07) (-3.782263e-11 -1.835650e-06 -8.393858e-09)) ((1.437405e-10 -1.059556e-12 3.231002e-13) (-1.314788e-07 -1.365062e-12 1.248321e-12))
1.271167      	((2.701164e-10 -8.870445e-07 -2.216830e-07) (-3.450489e-11 -1.663274e-06 -9.016823e-09)) ((1.236288e-10 -9.489699e-13 -2.762410e-14) (-1.201946e-07 -1.509731e-12 2.007239e-12))
1.5374        	((4.712669e-10 -8.344626e-07 -2.113258e-07) (3.073025e-12 -1.507666e-06 -9.080148e-09)) ((1.270535e-10 -9.322859e-13 -7.424141e-14) (-1.100222e-07 -7.141656e-13 2.768620e-12))
1.85688       	((3.604704e-10 -7.291259e-07 -1.954381e-07) (-5.396922e-12 -1.367464e-06 -9.647515e-09)) ((1.136645e-10 -7.325710e-13 -1.930175e-13) (-1.008803e-07 -2.599120e-13 3.701953e-12))
2.240256      	((2.935228e-10 -6.755503e-07 -1.883425e-07) (6.340720e-12 -1.241946e-06 -1.023464e-08)) ((1.128977e-10 -9.354850e-13 -1.672834e-13) (-9.269882e-08 1.671316e-12 3.994710e-12))
2.700307      	((2.202596e-10 -5.974155e-07 -1.784265e-07) (1.676045e-11 -1.130930e-06 -1.028505e-08)) ((1.039391e-10 -6.318090e-13 -2.165624e-13) (-8.546584e-08 3.519385e-12 3.365005e-12))
3.252369      	((8.723645e-11 -5.520444e-07 -1.732708e-07) (7.257645e-12 -1.033230e-06 -1.060149e-08)) ((1.015854e-10 -9.874422e-13 -1.804744e-13) (-7.910462e-08 4.333762e-12 2.167893e-12))
3.914842      	((2.623701e-10 -4.959251e-07 -1.662332e-07) (2.234474e-11 -9.475667e-07 -1.105566e-08)) ((9.607280e-11 -7.523679e-13 -1.935933e-13) (-7.354795e-08 4.784775e-12 -4.956104e-13))
4.709811      	((8.717186e-11 -4.591724e-07 -1.623595e-07) (1.701277e-11 -8.721000e-07 -1.181137e-08)) ((9.366673e-11 -1.094838e-12 -1.761622e-13) (-6.867382e-08 5.966998e-12 -2.594549e-12))
5.663773      	((2.630835e-10 -4.159212e-07 -1.575491e-07) (1.159112e-12 -8.049669e-07 -1.279307e-08)) ((8.996482e-11 -9.955310e-13 -2.007463e-13) (-6.435781e-08 6.380856e-12 -3.555294e-12))
6.808528      	((2.608274e-10 -3.846241e-07 -1.535205e-07) (1.496898e-11 -7.446960e-07 -1.374748e-08)) ((8.784749e-11 -1.183021e-12 -2.340093e-13) (-6.049158e-08 6.484723e-12 -4.341882e-12))
8.182233      	((3.585411e-10 -3.509669e-07 -1.495744e-07) (3.962925e-11 -6.899925e-07 -1.464246e-08)) ((8.528295e-11 -1.087546e-12 -2.497444e-13) (-5.699778e-08 6.157054e-12 -4.361593e-12))
9.83068       	((2.877119e-10 -3.242731e-07 -1.463806e-07) (6.240872e-11 -6.400237e-07 -1.541085e-08)) ((8.366901e-11 -1.161903e-12 -2.701846e-13) (-5.382206e-08 7.280977e-12 -3.573180e-12))
11.808816     	((3.315425e-10 -2.970288e-07 -1.442788e-07) (8.347046e-11 -5.941802e-07 -1.602071e-08)) ((8.181249e-11 -1.115683e-12 -2.608354e-13) (-5.092393e-08 7.832831e-12 -2.536347e-12))
14.182579     	((3.191741e-10 -2.740341e-07 -1.444836e-07) (1.043324e-10 -5.519295e-07 -1.647229e-08)) ((8.042048e-11 -1.173771e-12 -2.537531e-13) (-4.826908e-08 7.461654e-12 -1.781570e-12))
17.031095     	((3.728483e-10 -2.515655e-07 -1.450780e-07) (1.255604e-10 -5.129481e-07 -1.678730e-08)) ((7.909406e-11 -1.153550e-12 -2.464789e-13) (-4.583637e-08 6.900900e-12 -6.262665e-13))
20.449314     	((3.470668e-10 -2.319393e-07 -1.475679e-07) (1.420621e-10 -4.771030e-07 -1.701292e-08)) ((7.802869e-11 -1.205033e-12 -2.491121e-13) (-4.361608e-08 6.621777e-12 4.162620e-13))
24.551176     	((3.486748e-10 -2.134423e-07 -1.499579e-07) (1.445667e-10 -4.442903e-07 -1.723489e-08)) ((7.713609e-11 -1.223848e-12 -2.526895e-13) (-4.160127e-08 6.662169e-12 1.214983e-12))
29.473411     	((3.439744e-10 -1.974378e-07 -1.525007e-07) (1.357738e-10 -4.144046e-07 -1.749363e-08)) ((7.645229e-11 -1.276939e-12 -2.580402e-13) (-3.978265e-08 6.422686e-12 1.774300e-12))
35.380094     	((3.368083e-10 -1.827202e-07 -1.553612e-07) (1.312487e-10 -3.872575e-07 -1.781732e-08)) ((7.589768e-11 -1.303984e-12 -2.626926e-13) (-3.814477e-08 6.395199e-12 2.048721e-12))
42.468112     	((3.234388e-10 -1.701462e-07 -1.586331e-07) (1.255801e-10 -3.626523e-07 -1.828068e-08)) ((7.545438e-11 -1.342864e-12 -2.679906e-13) (-3.667372e-08 6.055613e-12 1.956611e-12))
50.973735     	((3.047282e-10 -1.591622e-07 -1.618572e-07) (1.216196e-10 -3.403740e-07 -1.891375e-08)) ((7.512057e-11 -1.373398e-12 -2.675223e-13) (-3.535776e-08 5.301839e-12 1.615715e-12))
61.180482     	((2.822103e-10 -1.498282e-07 -1.649919e-07) (1.271598e-10 -3.202471e-07 -1.974360e-08)) ((7.484061e-11 -1.402230e-12 -2.684398e-13) (-3.418531e-08 4.499390e-12 1.242384e-12))
73.428578     	((2.720007e-10 -1.418460e-07 -1.681561e-07) (1.285947e-10 -3.021073e-07 -2.077850e-08)) ((7.461809e-11 -1.424277e-12 -2.736883e-13) (-3.314418e-08 3.710394e-12 8.505194e-13))
88.126294     	((2.663494e-10 -1.352085e-07 -1.717607e-07) (1.329195e-10 -2.858166e-07 -2.205770e-08)) ((7.445381e-11 -1.441801e-12 -2.764180e-13) (-3.222281e-08 2.809932e-12 5.352701e-13))
105.763553    	((2.398473e-10 -1.298953e-07 -1.756532e-07) (1.345380e-10 -2.712821e-07 -2.362308e-08)) ((7.433896e-11 -1.456086e-12 -2.747160e-13) (-3.141218e-08 2.135405e-12 2.112458e-13))
126.928263    	((2.165714e-10 -1.259055e-07 -1.799244e-07) (1.360956e-10 -2.584642e-07 -2.544508e-08)) ((7.427928e-11 -1.472364e-12 -2.738210e-13) (-3.070555e-08 1.650929e-12 5.239795e-14))
152.325916    	((2.046306e-10 -1.232746e-07 -1.844062e-07) (1.384117e-10 -2.473307e-07 -2.753537e-08)) ((7.426402e-11 -1.488198e-12 -2.702733e-13) (-3.009755e-08 1.041621e-12 -4.372221e-14))
182.803099    	((1.905711e-10 -1.217657e-07 -1.890150e-07) (1.359475e-10 -2.378401e-07 -2.988236e-08)) ((7.426114e-11 -1.503194e-12 -2.697942e-13) (-2.958115e-08 5.391210e-13 -2.471375e-13))
218.760528    	((1.798887e-10 -1.213686e-07 -1.937878e-07) (1.300518e-10 -2.299727e-07 -3.244488e-08)) ((7.427591e-11 -1.518989e-12 -2.692047e-13) (-2.915064e-08 3.208888e-13 -3.823039e-13))
260.199235    	((1.700902e-10 -1.219353e-07 -1.986352e-07) (1.228964e-10 -2.236974e-07 -3.512207e-08)) ((7.430086e-11 -1.536358e-12 -2.685263e-13) (-2.879937e-08 2.831552e-13 -3.534559e-13))
307.12011     	((1.659637e-10 -1.233233e-07 -2.033656e-07) (1.180682e-10 -2.189510e-07 -3.775487e-08)) ((7.433206e-11 -1.551948e-12 -2.676998e-13) (-2.852052e-08 3.356311e-13 -1.338270e-13))
359.524117    	((1.693474e-10 -1.252402e-07 -2.076099e-07) (1.172181e-10 -2.156173e-07 -4.014978e-08)) ((7.436665e-11 -1.564399e-12 -2.664110e-13) (-2.830789e-08 5.523279e-13 1.365781e-13))
414.367627    	((1.815537e-10 -1.271636e-07 -2.110527e-07) (1.172207e-10 -2.135204e-07 -4.212447e-08)) ((7.441048e-11 -1.570523e-12 -2.653382e-13) (-2.815573e-08 8.561732e-13 3.096222e-13))
469.223784    	((1.926897e-10 -1.286335e-07 -2.137939e-07) (1.158380e-10 -2.123507e-07 -4.361317e-08)) ((7.445072e-11 -1.573504e-12 -2.631655e-13) (-2.805275e-08 1.167466e-12 4.343809e-13))
524.092584    	((1.978645e-10 -1.295582e-07 -2.159583e-07) (1.142034e-10 -2.117733e-07 -4.465701e-08)) ((7.447848e-11 -1.575984e-12 -2.607115e-13) (-2.798580e-08 1.361152e-12 5.128383e-13))
578.973394    	((2.019638e-10 -1.299881e-07 -2.176094e-07) (1.122575e-10 -2.115104e-07 -4.536078e-08)) ((7.449449e-11 -1.577544e-12 -2.584424e-13) (-2.794284e-08 1.515849e-12 5.383117e-13))
633.865       	((2.027084e-10 -1.301264e-07 -2.188566e-07) (1.100728e-10 -2.113824e-07 -4.583766e-08)) ((7.450304e-11 -1.579545e-12 -2.565507e-13) (-2.791459e-08 1.636827e-12 5.560420e-13))
688.766028    	((2.041015e-10 -1.301465e-07 -2.198787e-07) (1.088574e-10 -2.112983e-07 -4.617645e-08)) ((7.450711e-11 -1.581161e-12 -2.550974e-13) (-2.789507e-08 1.701754e-12 5.653703e-13))
743.674732    	((2.043061e-10 -1.301330e-07 -2.207601e-07) (1.082362e-10 -2.112260e-07 -4.643336e-08)) ((7.450873e-11 -1.582914e-12 -2.540197e-13) (-2.788100e-08 1.753521e-12 5.718278e-13))
798.589471    	((2.041858e-10 -1.301010e-07 -2.215311e-07) (1.078620e-10 -2.111582e-07 -4.664087e-08)) ((7.450919e-11 -1.584645e-12 -2.532780e-13) (-2.787053e-08 1.781392e-12 5.751434e-13))
853.508943    	((2.046398e-10 -1.300552e-07 -2.222108e-07) (1.074469e-10 -2.110949e-07 -4.681685e-08)) ((7.450913e-11 -1.586409e-12 -2.528319e-13) (-2.786252e-08 1.792668e-12 5.726193e-13))
908.432148    	((2.049527e-10 -1.300017e-07 -2.228324e-07) (1.069666e-10 -2.110375e-07 -4.697230e-08)) ((7.450875e-11 -1.588139e-12 -2.526134e-13) (-2.785626e-08 1.796150e-12 5.701879e-13))
963.358316    	((2.048685e-10 -1.299481e-07 -2.234038e-07) (1.065442e-10 -2.109873e-07 -4.711310e-08)) ((7.450829e-11 -1.589841e-12 -2.524793e-13) (-2.785126e-08 1.802406e-12 5.720148e-13))
1018.286884   	((2.050056e-10 -1.298983e-07 -2.239228e-07) (1.061933e-10 -2.109453e-07 -4.724244e-08)) ((7.450782e-11 -1.591354e-12 -2.524302e-13) (-2.784725e-08 1.799669e-12 5.757700e-13))
1073.217438   	((2.048463e-10 -1.298530e-07 -2.243961e-07) (1.059421e-10 -2.109119e-07 -4.736194e-08)) ((7.450744e-11 -1.592710e-12 -2.523934e-13) (-2.784405e-08 1.795124e-12 5.809387e-13))
1128.149681   	((2.047143e-10 -1.298120e-07 -2.248305e-07) (1.057472e-10 -2.108866e-07 -4.747266e-08)) ((7.450712e-11 -1.593977e-12 -2.523578e-13) (-2.784148e-08 1.791066e-12 5.881170e-13))
1183.083391   	((2.045840e-10 -1.297748e-07 -2.252318e-07) (1.055941e-10 -2.108683e-07 -4.757537e-08)) ((7.450686e-11 -1.595145e-12 -2.523128e-13) (-2.783944e-08 1.788931e-12 5.954678e-13))
1238.018404   	((2.043590e-10 -1.297404e-07 -2.256025e-07) (1.055213e-10 -2.108560e-07 -4.767065e-08)) ((7.450664e-11 -1.596183e-12 -2.522796e-13) (-2.783782e-08 1.785493e-12 6.045170e-13))
1292.954566   	((2.043656e-10 -1.297089e-07 -2.259454e-07) (1.055582e-10 -2.108485e-07 -4.775905e-08)) ((7.450646e-11 -1.597117e-12 -2.522621e-13) (-2.783653e-08 1.780585e-12 6.150972e-13))
1347.891757   	((2.044266e-10 -1.296801e-07 -2.262624e-07) (1.056753e-10 -2.108447e-07 -4.784103e-08)) ((7.450631e-11 -1.597976e-12 -2.522652e-13) (-2.783552e-08 1.774258e-12 6.265631e-13))
1402.829886   	((2.045721e-10 -1.296539e-07 -2.265558e-07) (1.058418e-10 -2.108440e-07 -4.791715e-08)) ((7.450626e-11 -1.598782e-12 -2.522653e-13) (-2.783472e-08 1.765433e-12 6.373047e-13))
1457.768879   	((2.045639e-10 -1.296303e-07 -2.268276e-07) (1.060328e-10 -2.108456e-07 -4.798783e-08)) ((7.450628e-11 -1.599521e-12 -2.522607e-13) (-2.783410e-08 1.755454e-12 6.469679e-13))
1512.708674   	((2.045242e-10 -1.296091e-07 -2.270795e-07) (1.062263e-10 -2.108490e-07 -4.805351e-08)) ((7.450632e-11 -1.600178e-12 -2.522655e-13) (-2.783362e-08 1.744905e-12 6.561239e-13))
1567.649214   	((2.046385e-10 -1.295901e-07 -2.273134e-07) (1.064586e-10 -2.108539e-07 -4.811461e-08)) ((7.450639e-11 -1.600763e-12 -2.522761e-13) (-2.783325e-08 1.732636e-12 6.651284e-13))
1622.590442   	((2.048548e-10 -1.295735e-07 -2.275307e-07) (1.067346e-10 -2.108599e-07 -4.817154e-08)) ((7.450644e-11 -1.601298e-12 -2.522888e-13) (-2.783299e-08 1.718682e-12 6.737649e-13))
1677.532312   	((2.051179e-10 -1.295582e-07 -2.277326e-07) (1.070296e-10 -2.108668e-07 -4.822468e-08)) ((7.450648e-11 -1.601783e-12 -2.522991e-13) (-2.783280e-08 1.705168e-12 6.822249e-13))
1732.474778   	((2.052190e-10 -1.295438e-07 -2.279215e-07) (1.073439e-10 -2.108743e-07 -4.827426e-08)) ((7.450650e-11 -1.602224e-12 -2.523081e-13) (-2.783267e-08 1.692703e-12 6.906137e-13))
1787.417799   	((2.053684e-10 -1.295304e-07 -2.280986e-07) (1.076261e-10 -2.108822e-07 -4.832052e-08)) ((7.450651e-11 -1.602631e-12 -2.523152e-13) (-2.783260e-08 1.681221e-12 6.981738e-13))
1842.361338   	((2.055810e-10 -1.295178e-07 -2.282639e-07) (1.078832e-10 -2.108902e-07 -4.836368e-08)) ((7.450652e-11 -1.603006e-12 -2.523210e-13) (-2.783256e-08 1.671101e-12 7.051843e-13))
1897.30536    	((2.058162e-10 -1.295060e-07 -2.284184e-07) (1.081358e-10 -2.108982e-07 -4.840394e-08)) ((7.450653e-11 -1.603344e-12 -2.523291e-13) (-2.783254e-08 1.660802e-12 7.115184e-13))
1952.249833   	((2.059879e-10 -1.294947e-07 -2.285631e-07) (1.083753e-10 -2.109061e-07 -4.844155e-08)) ((7.450654e-11 -1.603654e-12 -2.523364e-13) (-2.783254e-08 1.651094e-12 7.166368e-13))
2007.19473    	((2.061404e-10 -1.294839e-07 -2.286981e-07) (1.085944e-10 -2.109137e-07 -4.847674e-08)) ((7.450654e-11 -1.603941e-12 -2.523423e-13) (-2.783256e-08 1.641870e-12 7.203314e-13))
2062.140021   	((2.062748e-10 -1.294737e-07 -2.288250e-07) (1.087985e-10 -2.109211e-07 -4.850969e-08)) ((7.450655e-11 -1.604210e-12 -2.523460e-13) (-2.783259e-08 1.633247e-12 7.224041e-13))
2117.085684   	((2.064615e-10 -1.294640e-07 -2.289445e-07) (1.089973e-10 -2.109283e-07 -4.854058e-08)) ((7.450655e-11 -1.604461e-12 -2.523526e-13) (-2.783262e-08 1.625373e-12 7.230926e-13))
2172.031695   	((2.065777e-10 -1.294548e-07 -2.290568e-07) (1.091703e-10 -2.109351e-07 -4.856957e-08)) ((7.450655e-11 -1.604690e-12 -2.523487e-13) (-2.783265e-08 1.618573e-12 7.235733e-13))
2226.978033   	((2.067057e-10 -1.294460e-07 -2.291624e-07) (1.093210e-10 -2.109417e-07 -4.859681e-08)) ((7.450655e-11 -1.604899e-12 -2.523401e-13) (-2.783269e-08 1.612842e-12 7.241643e-13))
2281.92468    	((2.067795e-10 -1.294377e-07 -2.292618e-07) (1.094513e-10 -2.109480e-07 -4.862245e-08)) ((7.450655e-11 -1.605090e-12 -2.523295e-13) (-2.783273e-08 1.607980e-12 7.252126e-13))
2336.871618   	((2.068441e-10 -1.294298e-07 -2.293556e-07) (1.095675e-10 -2.109540e-07 -4.864658e-08)) ((7.450655e-11 -1.605272e-12 -2.523222e-13) (-2.783277e-08 1.603685e-12 7.265236e-13))
2391.81883    	((2.069139e-10 -1.294223e-07 -2.294439e-07) (1.096886e-10 -2.109598e-07 -4.866934e-08)) ((7.450654e-11 -1.605436e-12 -2.523213e-13) (-2.783281e-08 1.599544e-12 7.275236e-13))
