# Forces      
# CofR        : (0.000000e+00 0.000000e+00 0.000000e+00)
# Time        forces(pressure viscous)	moments(pressure viscous)
0             	((0.000000e+00 0.000000e+00 0.000000e+00) (0.000000e+00 0.000000e+00 0.000000e+00)) ((0.000000e+00 0.000000e+00 0.000000e+00) (0.000000e+00 0.000000e+00 0.000000e+00))
0.012         	((-2.037089e-11 4.784874e-09 -6.233758e-11) (-6.092529e-13 5.365843e-11 -2.149613e-13)) ((-3.442966e-13 -1.148521e-15 -6.588112e-11) (1.024514e-12 2.819119e-14 -1.339396e-07))
0.0264        	((1.490631e-11 -1.735015e-09 1.411180e-10) (-6.793278e-13 5.726366e-11 -3.708819e-13)) ((-8.099163e-13 6.334169e-15 -1.977314e-11) (1.822394e-12 2.733097e-14 -1.172286e-07))
0.04368       	((-9.347754e-11 8.748522e-10 -9.922297e-11) (-8.725040e-13 3.752448e-11 -8.432219e-13)) ((3.720558e-13 -5.696349e-16 -1.036783e-11) (1.537891e-12 3.763893e-14 -1.013813e-07))
0.064416      	((-6.405780e-11 7.164715e-11 1.343152e-11) (-9.277094e-13 2.005498e-11 -6.444325e-13)) ((-1.045822e-13 -1.083282e-15 -6.965702e-12) (7.811325e-13 4.807975e-14 -8.683205e-08))
0.0892992     	((-9.188185e-11 4.207870e-10 -6.109104e-11) (-8.181496e-13 1.271622e-11 7.354835e-14)) ((1.130320e-13 -7.352215e-15 -5.612531e-12) (3.739082e-13 4.962785e-14 -7.396615e-08))
0.119159      	((-3.318452e-11 3.833291e-11 -6.628815e-11) (-1.175658e-12 1.090849e-11 8.938453e-13)) ((6.916401e-14 -4.600412e-15 -4.458171e-12) (-1.464554e-13 6.073397e-14 -6.296150e-08))
0.154991      	((-6.689887e-11 3.542525e-10 -7.450189e-11) (-1.560812e-12 8.119455e-12 2.215474e-12)) ((6.690419e-14 -6.800991e-15 -3.562388e-12) (-5.309136e-13 7.050769e-14 -5.389444e-08))
0.197989      	((-6.863016e-11 2.763214e-10 -9.032973e-11) (-1.453302e-12 5.042126e-12 4.502956e-12)) ((5.274689e-14 -2.822158e-15 -2.787845e-12) (-7.352022e-13 4.552055e-14 -4.661004e-08))
0.249587      	((-8.427722e-11 3.212107e-10 -9.413613e-11) (-6.662018e-13 1.816691e-12 7.640406e-12)) ((5.364480e-14 5.405702e-16 -2.303574e-12) (-6.747288e-13 3.804264e-15 -4.081193e-08))
0.311504      	((-1.483217e-10 4.068663e-10 -1.197493e-10) (8.181794e-14 -1.039872e-12 1.173085e-11)) ((3.860359e-14 2.965245e-15 -2.038811e-12) (-5.604419e-13 -3.406598e-14 -3.614968e-08))
0.385805      	((-1.778521e-10 5.308787e-10 -1.322932e-10) (2.814370e-13 1.138655e-12 1.633998e-11)) ((2.918446e-14 1.531702e-15 -1.778775e-12) (-4.247985e-13 -5.479615e-14 -3.230623e-08))
0.474966      	((-2.491389e-10 6.486855e-10 -1.581188e-10) (1.023866e-12 2.679384e-12 2.093449e-11)) ((-4.060046e-15 2.575472e-15 -1.553586e-12) (-1.315623e-13 -6.162736e-14 -2.904431e-08))
0.581959      	((-3.299249e-10 8.293797e-10 -1.825848e-10) (1.556371e-12 4.763641e-12 2.559161e-11)) ((-1.851708e-14 2.916405e-15 -1.440658e-12) (4.470336e-13 -7.459009e-14 -2.620784e-08))
0.710351      	((-3.928828e-10 8.194623e-10 -2.117060e-10) (5.150128e-12 1.270092e-11 3.092665e-11)) ((-3.558178e-14 2.407783e-15 -1.369881e-12) (9.089501e-13 -1.158811e-13 -2.369968e-08))
0.864421      	((-4.566371e-10 6.593147e-10 -2.211180e-10) (1.268436e-11 9.360379e-12 3.722016e-11)) ((-5.691281e-14 -1.117074e-15 -1.304331e-12) (7.885274e-13 -2.443077e-13 -2.145858e-08))
1.049306      	((-4.724818e-10 5.949583e-10 -2.329448e-10) (2.160700e-11 -9.172805e-12 4.373602e-11)) ((-7.230694e-14 -5.708214e-15 -1.234477e-12) (2.617379e-13 -3.706860e-13 -1.944671e-08))
1.271167      	((-4.238068e-10 5.028626e-10 -2.596285e-10) (3.838206e-11 -3.388265e-11 5.193209e-11)) ((-9.008679e-14 -7.961126e-15 -1.181895e-12) (-3.917358e-13 -6.781380e-13 -1.764499e-08))
1.5374        	((-3.192620e-10 4.989986e-10 -2.712502e-10) (6.351953e-11 -6.171738e-11 6.185326e-11)) ((-8.093113e-14 -1.172315e-14 -1.143152e-12) (-1.099600e-12 -1.357209e-12 -1.604425e-08))
1.85688       	((-2.196468e-10 3.763959e-10 -2.650948e-10) (9.464520e-11 -8.313367e-11 7.116240e-11)) ((-7.339924e-14 -1.253070e-14 -1.093430e-12) (-1.878804e-12 -2.182015e-12 -1.463568e-08))
2.240256      	((-1.268190e-10 2.415071e-10 -2.858595e-10) (1.336926e-10 -1.058453e-10 8.154143e-11)) ((-8.434991e-14 -1.526014e-14 -1.033584e-12) (-2.862933e-12 -3.282882e-12 -1.340508e-08))
2.700307      	((-8.895929e-11 1.647418e-10 -2.896114e-10) (1.749131e-10 -1.411286e-10 9.081600e-11)) ((-8.100904e-14 -1.938160e-14 -9.805780e-13) (-4.109982e-12 -4.551435e-12 -1.233158e-08))
3.252369      	((-2.081503e-11 1.057684e-10 -3.303299e-10) (2.133724e-10 -1.824906e-10 1.002246e-10)) ((-6.725937e-14 -2.134134e-14 -9.143173e-13) (-5.209172e-12 -5.715091e-12 -1.139052e-08))
3.914842      	((-5.766056e-13 -4.173633e-11 -3.460513e-10) (2.394559e-10 -2.180340e-10 1.131779e-10)) ((-4.857974e-14 -1.686817e-14 -8.521075e-13) (-5.891605e-12 -6.423274e-12 -1.055693e-08))
4.709811      	((4.425647e-11 -1.131007e-10 -3.749229e-10) (2.499540e-10 -2.400520e-10 1.320626e-10)) ((-3.483303e-14 -8.466709e-15 -7.979514e-13) (-6.289717e-12 -6.791850e-12 -9.809739e-09))
5.663773      	((5.564313e-11 -8.113546e-11 -4.254597e-10) (2.457867e-10 -2.417055e-10 1.552183e-10)) ((-3.571489e-14 -4.359020e-15 -7.427920e-13) (-6.179498e-12 -6.791923e-12 -9.133588e-09))
6.808528      	((7.920574e-11 -6.001604e-11 -4.765462e-10) (2.250272e-10 -2.234058e-10 1.770099e-10)) ((-3.183121e-14 -1.766371e-15 -6.916018e-13) (-5.547349e-12 -6.312187e-12 -8.516417e-09))
8.182233      	((7.841566e-11 -3.469632e-11 -5.234486e-10) (1.940691e-10 -1.902984e-10 2.033929e-10)) ((-2.129003e-14 5.388972e-16 -6.427522e-13) (-4.823536e-12 -5.476961e-12 -7.949196e-09))
9.83068       	((6.532738e-11 2.694697e-11 -5.846527e-10) (1.547347e-10 -1.526398e-10 2.304088e-10)) ((-2.245257e-14 3.241897e-15 -5.968623e-13) (-3.888439e-12 -4.479422e-12 -7.427068e-09))
11.808816     	((1.922001e-11 1.060370e-10 -6.371671e-10) (1.161828e-10 -1.148653e-10 2.561398e-10)) ((-1.198268e-14 6.501963e-15 -5.541629e-13) (-2.675426e-12 -3.524188e-12 -6.947520e-09))
14.182579     	((-1.741524e-11 8.019303e-11 -7.090642e-10) (8.252503e-11 -8.393890e-11 2.855127e-10)) ((1.889404e-15 8.257461e-15 -5.126111e-13) (-1.665885e-12 -2.671452e-12 -6.507635e-09))
17.031095     	((-5.656036e-11 7.519027e-11 -7.932573e-10) (5.614729e-11 -6.023772e-11 3.154600e-10)) ((1.242070e-14 5.802662e-15 -4.765575e-13) (-1.184754e-12 -1.977947e-12 -6.104847e-09))
20.449314     	((-5.674226e-11 1.054726e-10 -8.701619e-10) (4.126286e-11 -4.499016e-11 3.482284e-10)) ((1.562355e-14 4.939860e-15 -4.436692e-13) (-9.650229e-13 -1.587673e-12 -5.736637e-09))
24.551176     	((-8.336804e-11 1.005389e-10 -9.336617e-10) (3.641536e-11 -3.937742e-11 3.820903e-10)) ((1.962047e-14 3.618140e-15 -4.142362e-13) (-9.799242e-13 -1.477222e-12 -5.400153e-09))
29.473411     	((-7.100322e-11 8.339432e-11 -1.023088e-09) (3.983325e-11 -4.449525e-11 4.179399e-10)) ((2.055166e-14 2.251335e-15 -3.880764e-13) (-1.160398e-12 -1.575019e-12 -5.092263e-09))
35.380094     	((-7.544166e-11 6.669648e-11 -1.157151e-09) (4.870055e-11 -5.724705e-11 4.573529e-10)) ((2.158433e-14 8.573692e-16 -3.650568e-13) (-1.546726e-12 -1.787820e-12 -4.810244e-09))
42.468112     	((-6.139372e-11 4.676690e-11 -1.266322e-09) (6.049287e-11 -7.216336e-11 5.002154e-10)) ((2.232348e-14 8.279742e-17 -3.441804e-13) (-1.967857e-12 -2.079346e-12 -4.552105e-09))
50.973735     	((-5.886194e-11 3.692572e-11 -1.381953e-09) (7.254856e-11 -8.534823e-11 5.499054e-10)) ((2.278872e-14 -2.331893e-15 -3.247630e-13) (-2.345789e-12 -2.363863e-12 -4.316341e-09))
61.180482     	((-4.998826e-11 2.960617e-11 -1.503331e-09) (8.304174e-11 -9.716624e-11 6.079590e-10)) ((2.185645e-14 -4.530715e-15 -3.067366e-13) (-2.662863e-12 -2.580339e-12 -4.101472e-09))
73.428578     	((-4.704031e-11 2.214358e-11 -1.612704e-09) (9.088934e-11 -1.059206e-10 6.720920e-10)) ((2.125827e-14 -6.637993e-15 -2.904549e-13) (-2.925496e-12 -2.754817e-12 -3.905918e-09))
88.126294     	((-3.695181e-11 1.370272e-11 -1.717421e-09) (9.636596e-11 -1.119495e-10 7.369798e-10)) ((1.935948e-14 -8.537598e-15 -2.759391e-13) (-3.102178e-12 -2.873656e-12 -3.728183e-09))
105.763553    	((-3.856043e-11 1.246641e-11 -1.833506e-09) (9.930611e-11 -1.165066e-10 8.040994e-10)) ((1.807839e-14 -1.040833e-14 -2.630933e-13) (-3.222541e-12 -2.902122e-12 -3.566693e-09))
126.928263    	((-3.360180e-11 1.487288e-11 -1.951638e-09) (1.001231e-10 -1.194453e-10 8.724533e-10)) ((1.725706e-14 -1.155897e-14 -2.514144e-13) (-3.286834e-12 -2.826137e-12 -3.419879e-09))
152.325916    	((-2.677495e-11 1.358247e-11 -2.077715e-09) (9.948823e-11 -1.205463e-10 9.423859e-10)) ((1.711238e-14 -1.218639e-14 -2.405615e-13) (-3.312731e-12 -2.707037e-12 -3.286266e-09))
182.803099    	((-2.210207e-11 1.322972e-11 -2.198688e-09) (9.696219e-11 -1.203786e-10 1.014477e-09)) ((1.715189e-14 -1.251790e-14 -2.305042e-13) (-3.298558e-12 -2.563634e-12 -3.164497e-09))
219.375719    	((-1.811890e-11 9.730337e-12 -2.328290e-09) (9.264762e-11 -1.190662e-10 1.088703e-09)) ((1.767873e-14 -1.293186e-14 -2.212496e-13) (-3.265768e-12 -2.370558e-12 -3.053425e-09))
263.262863    	((-1.387268e-11 5.314361e-12 -2.462214e-09) (8.752349e-11 -1.171861e-10 1.165233e-09)) ((1.779683e-14 -1.423395e-14 -2.127872e-13) (-3.234210e-12 -2.148033e-12 -2.952096e-09))
315.927436    	((-1.086361e-11 -2.121116e-14 -2.590994e-09) (8.239361e-11 -1.150432e-10 1.244788e-09)) ((1.762350e-14 -1.534528e-14 -2.051881e-13) (-3.217746e-12 -1.941351e-12 -2.859713e-09))
379.124923    	((-6.095554e-12 -2.289306e-12 -2.715684e-09) (7.740766e-11 -1.126305e-10 1.326500e-09)) ((1.780577e-14 -1.646480e-14 -1.982663e-13) (-3.205944e-12 -1.762196e-12 -2.775597e-09))
454.961908    	((-3.426394e-12 -2.104772e-12 -2.834980e-09) (7.168739e-11 -1.095804e-10 1.410362e-09)) ((1.853883e-14 -1.756514e-14 -1.917689e-13) (-3.202974e-12 -1.571257e-12 -2.699157e-09))
545.966289    	((8.682615e-14 -1.905098e-12 -2.946257e-09) (6.570297e-11 -1.055256e-10 1.494979e-09)) ((1.936029e-14 -1.845382e-14 -1.857169e-13) (-3.183129e-12 -1.375199e-12 -2.629806e-09))
655.171547    	((4.522535e-12 -3.802153e-13 -3.046252e-09) (5.984664e-11 -1.006320e-10 1.579377e-09)) ((2.019148e-14 -1.930314e-14 -1.801974e-13) (-3.136672e-12 -1.176797e-12 -2.566980e-09))
786.217856    	((8.605283e-12 2.032366e-12 -3.134731e-09) (5.449937e-11 -9.544780e-11 1.662705e-09)) ((2.075901e-14 -1.962730e-14 -1.752512e-13) (-3.062864e-12 -9.858800e-13 -2.510159e-09))
943.473427    	((1.173188e-11 3.957742e-12 -3.212923e-09) (4.949600e-11 -8.994062e-11 1.744397e-09)) ((2.125821e-14 -2.007521e-14 -1.706618e-13) (-2.943142e-12 -8.214112e-13 -2.458865e-09))
1132.180113   	((1.531862e-11 5.423715e-12 -3.280702e-09) (4.493458e-11 -8.426015e-11 1.823968e-09)) ((2.158267e-14 -2.034561e-14 -1.664714e-13) (-2.781207e-12 -6.862527e-13 -2.412646e-09))
1358.628135   	((1.775271e-11 7.369763e-12 -3.341431e-09) (4.093203e-11 -7.880650e-11 1.900667e-09)) ((2.176114e-14 -2.060646e-14 -1.627896e-13) (-2.611508e-12 -5.889560e-13 -2.371047e-09))
1630.365763   	((1.903135e-11 1.065264e-11 -3.395081e-09) (3.750445e-11 -7.369318e-11 1.973502e-09)) ((2.182495e-14 -2.113871e-14 -1.594465e-13) (-2.451433e-12 -5.264238e-13 -2.333636e-09))
1956.450915   	((2.047859e-11 1.578572e-11 -3.441436e-09) (3.452925e-11 -6.886353e-11 2.042670e-09)) ((2.177065e-14 -2.156154e-14 -1.564680e-13) (-2.300858e-12 -4.717374e-13 -2.300018e-09))
2346.879278   	((2.204965e-11 2.002186e-11 -3.480809e-09) (3.198018e-11 -6.439154e-11 2.108301e-09)) ((2.198444e-14 -2.179488e-14 -1.537697e-13) (-2.158460e-12 -4.180104e-13 -2.269827e-09))
2801.652025   	((2.323726e-11 2.279529e-11 -3.514556e-09) (2.983275e-11 -6.014951e-11 2.170099e-09)) ((2.225886e-14 -2.194428e-14 -1.513909e-13) (-2.017833e-12 -3.737109e-13 -2.242745e-09))
3320.770472   	((2.514312e-11 2.528440e-11 -3.544199e-09) (2.801347e-11 -5.621078e-11 2.228026e-09)) ((2.229962e-14 -2.210973e-14 -1.491857e-13) (-1.886495e-12 -3.342969e-13 -2.218458e-09))
3904.236058   	((2.709561e-11 2.805469e-11 -3.570198e-09) (2.655966e-11 -5.260462e-11 2.281964e-09)) ((2.230869e-14 -2.215269e-14 -1.471786e-13) (-1.772405e-12 -3.050266e-13 -2.196667e-09))
4547.722284   	((2.907949e-11 3.085388e-11 -3.592849e-09) (2.534509e-11 -4.934503e-11 2.332052e-09)) ((2.232633e-14 -2.216922e-14 -1.454246e-13) (-1.669117e-12 -2.814697e-13 -2.177098e-09))
5191.223527   	((3.069202e-11 3.336137e-11 -3.612141e-09) (2.423072e-11 -4.646532e-11 2.378156e-09)) ((2.229526e-14 -2.219496e-14 -1.438326e-13) (-1.574795e-12 -2.640232e-13 -2.159537e-09))
5834.739401   	((3.225557e-11 3.462369e-11 -3.628416e-09) (2.325969e-11 -4.392448e-11 2.420465e-09)) ((2.227660e-14 -2.217272e-14 -1.423760e-13) (-1.489955e-12 -2.497113e-13 -2.143759e-09))
6478.269538   	((3.357514e-11 3.487134e-11 -3.642511e-09) (2.239767e-11 -4.169437e-11 2.459245e-09)) ((2.233196e-14 -2.217640e-14 -1.410322e-13) (-1.419409e-12 -2.340895e-13 -2.129569e-09))
7121.813108   	((3.454006e-11 3.416963e-11 -3.655013e-09) (2.172274e-11 -3.974701e-11 2.494937e-09)) ((2.233541e-14 -2.224250e-14 -1.397851e-13) (-1.358897e-12 -2.162321e-13 -2.116776e-09))
7765.369259   	((3.495854e-11 3.270570e-11 -3.666097e-09) (2.118928e-11 -3.803282e-11 2.527900e-09)) ((2.227012e-14 -2.232507e-14 -1.386807e-13) (-1.305171e-12 -1.985810e-13 -2.105224e-09))
8408.93723    	((3.523032e-11 3.111327e-11 -3.675956e-09) (2.076669e-11 -3.653333e-11 2.558381e-09)) ((2.214940e-14 -2.243838e-14 -1.376979e-13) (-1.257062e-12 -1.832130e-13 -2.094767e-09))
9052.516184   	((3.590466e-11 2.962733e-11 -3.684655e-09) (2.047560e-11 -3.519184e-11 2.586590e-09)) ((2.202449e-14 -2.250870e-14 -1.368067e-13) (-1.214277e-12 -1.708444e-13 -2.085284e-09))
9696.105349   	((3.692779e-11 2.749330e-11 -3.692628e-09) (2.027001e-11 -3.401058e-11 2.612820e-09)) ((2.193954e-14 -2.258370e-14 -1.359649e-13) (-1.178332e-12 -1.617799e-13 -2.076667e-09))
10339.703946  	((3.786033e-11 2.493440e-11 -3.700274e-09) (2.014775e-11 -3.299982e-11 2.637495e-09)) ((2.191552e-14 -2.258154e-14 -1.351975e-13) (-1.153770e-12 -1.610425e-13 -2.068824e-09))
10983.311228  	((3.899445e-11 2.199296e-11 -3.707784e-09) (2.007896e-11 -3.211747e-11 2.661128e-09)) ((2.187318e-14 -2.254278e-14 -1.344888e-13) (-1.138189e-12 -1.677500e-13 -2.061674e-09))
11626.926423  	((4.071142e-11 2.014640e-11 -3.715039e-09) (2.006987e-11 -3.127461e-11 2.684133e-09)) ((2.142709e-14 -2.252829e-14 -1.338796e-13) (-1.122786e-12 -1.812675e-13 -2.055145e-09))
12270.548878  	((4.181196e-11 1.988439e-11 -3.720284e-09) (2.011410e-11 -3.044610e-11 2.706316e-09)) ((2.092202e-14 -2.269217e-14 -1.333588e-13) (-1.091659e-12 -1.981696e-13 -2.049178e-09))
12914.178004  	((4.152940e-11 1.861474e-11 -3.725961e-09) (2.017167e-11 -2.971735e-11 2.726980e-09)) ((2.084625e-14 -2.310601e-14 -1.328725e-13) (-1.063364e-12 -2.074659e-13 -2.043723e-09))
13557.813315  	((4.016667e-11 1.711863e-11 -3.730891e-09) (2.014928e-11 -2.910976e-11 2.746062e-09)) ((2.085881e-14 -2.352220e-14 -1.324088e-13) (-1.044436e-12 -2.015534e-13 -2.038731e-09))
14201.454295  	((3.969798e-11 1.624225e-11 -3.735254e-09) (2.009308e-11 -2.859960e-11 2.763409e-09)) ((2.079704e-14 -2.372769e-14 -1.319792e-13) (-1.028206e-12 -1.970961e-13 -2.034158e-09))
14845.100457  	((3.927742e-11 1.554219e-11 -3.739211e-09) (2.003343e-11 -2.813068e-11 2.779159e-09)) ((2.074136e-14 -2.387653e-14 -1.315672e-13) (-1.011585e-12 -1.960920e-13 -2.029964e-09))
