# Forces      
# CofR        : (0.000000e+00 0.000000e+00 0.000000e+00)
# Time        forces(pressure viscous)	moments(pressure viscous)
0             	((0.000000e+00 0.000000e+00 0.000000e+00) (-6.290877e-13 1.008505e-03 5.041434e-14)) ((0.000000e+00 0.000000e+00 0.000000e+00) (2.266006e-05 -3.769428e-15 -4.884855e-10))
0.012         	((6.750602e-08 2.925404e-01 7.128776e-02) (-2.947810e-10 1.153585e-03 -7.001037e-06)) ((-3.438914e-06 2.490683e-07 -5.431589e-08) (3.352406e-05 -4.686725e-11 -8.135962e-10))
0.0264        	((-7.390905e-06 -3.282329e-02 -9.503161e-03) (-5.900396e-09 1.164740e-03 -1.085686e-05)) ((3.674382e-07 -2.124479e-08 2.882666e-09) (3.728430e-05 -2.210888e-11 -6.345288e-10))
0.04368       	((9.637023e-06 -5.441871e-02 -9.093909e-03) (7.346293e-10 1.022783e-03 -1.083789e-05)) ((7.266974e-07 -2.346915e-08 1.653975e-08) (3.312048e-05 -4.933547e-11 -1.109585e-10))
0.064416      	((-9.193377e-07 -3.638208e-04 -4.538546e-03) (-1.166078e-08 9.010865e-04 -1.208857e-05)) ((-2.031746e-09 -8.020734e-09 -2.402388e-09) (2.993692e-05 2.215696e-11 -2.766865e-10))
0.0892992     	((-1.744304e-07 -1.267229e-04 -3.388816e-03) (-1.513091e-08 8.292358e-04 -1.489053e-05)) ((-1.191025e-08 -4.157364e-09 -1.255456e-10) (2.834000e-05 3.484936e-10 -1.688205e-10))
0.119159      	((1.090330e-06 -8.529339e-04 -2.752067e-03) (-1.424283e-08 7.669096e-04 -1.762465e-05)) ((2.109663e-08 -1.965394e-09 2.782323e-10) (2.661565e-05 3.343562e-10 1.158969e-10))
0.154991      	((-6.903727e-07 -2.009230e-04 -2.387469e-03) (-4.495460e-08 7.047020e-04 -2.012249e-05)) ((1.178601e-08 -8.969142e-10 -8.509500e-11) (2.482031e-05 2.041004e-10 4.399775e-10))
0.197989      	((-3.716541e-07 3.537520e-05 -2.136681e-03) (-7.990579e-08 6.463762e-04 -2.254826e-05)) ((8.145628e-09 -2.179761e-10 -1.532802e-11) (2.308340e-05 2.583123e-10 9.115821e-10))
0.249587      	((-4.931813e-07 1.214945e-04 -1.979302e-03) (-9.929231e-08 5.938257e-04 -2.509233e-05)) ((6.686551e-09 2.624823e-10 -5.894817e-11) (2.144188e-05 3.005769e-10 1.360556e-09))
0.311504      	((-2.489800e-07 1.740805e-04 -1.882194e-03) (-9.914365e-08 5.476088e-04 -2.776046e-05)) ((5.606722e-09 5.605486e-10 -5.296650e-11) (1.992238e-05 2.792659e-10 1.536211e-09))
0.385805      	((-2.965236e-07 2.027975e-04 -1.818265e-03) (-9.265565e-08 5.069772e-04 -3.063740e-05)) ((4.715283e-09 7.172003e-10 -3.749092e-11) (1.852646e-05 2.492120e-10 1.531409e-09))
0.474966      	((-2.124758e-07 2.174825e-04 -1.776688e-03) (-8.502646e-08 4.704771e-04 -3.380842e-05)) ((3.858065e-09 7.871106e-10 -6.242722e-11) (1.723029e-05 2.625059e-10 1.662770e-09))
0.581959      	((-1.609484e-07 2.231165e-04 -1.748754e-03) (-7.174830e-08 4.360371e-04 -3.739252e-05)) ((3.011183e-09 8.124392e-10 -7.266139e-11) (1.598154e-05 3.423328e-10 2.021899e-09))
0.710351      	((-1.336656e-07 2.235167e-04 -1.729013e-03) (-5.892715e-08 4.025128e-04 -4.141589e-05)) ((2.204512e-09 8.003332e-10 -9.828997e-11) (1.475375e-05 4.389036e-10 2.500027e-09))
0.864421      	((-1.263105e-07 2.222306e-04 -1.714288e-03) (-4.840972e-08 3.702558e-04 -4.587808e-05)) ((1.422292e-09 7.613260e-10 -1.268065e-10) (1.356582e-05 4.727259e-10 2.876534e-09))
1.049306      	((-7.542878e-08 2.221233e-04 -1.702267e-03) (-4.146720e-08 3.399543e-04 -5.079526e-05)) ((6.629335e-10 7.106968e-10 -1.584915e-10) (1.244503e-05 4.045006e-10 3.065275e-09))
1.271167      	((-5.117724e-08 2.254949e-04 -1.691076e-03) (-3.810248e-08 3.120818e-04 -5.608508e-05)) ((-8.625294e-11 6.397587e-10 -2.002597e-10) (1.140985e-05 2.256067e-10 3.150308e-09))
1.5374        	((-8.923653e-08 2.334832e-04 -1.679677e-03) (-3.069306e-08 2.869254e-04 -6.159545e-05)) ((-8.478572e-10 5.523616e-10 -2.475941e-10) (1.047168e-05 2.175635e-11 3.208644e-09))
1.85688       	((-9.724675e-08 2.469025e-04 -1.666208e-03) (-1.836866e-08 2.646212e-04 -6.709112e-05)) ((-1.727806e-09 4.663165e-10 -3.012364e-10) (9.638978e-06 -8.443039e-11 3.133335e-09))
2.240256      	((-1.367058e-07 2.670864e-04 -1.651252e-03) (-7.276852e-09 2.452280e-04 -7.226416e-05)) ((-2.701759e-09 3.542531e-10 -3.677944e-10) (8.917404e-06 -1.033905e-10 3.036577e-09))
2.700307      	((-1.381301e-07 2.949356e-04 -1.634099e-03) (2.490021e-09 2.286818e-04 -7.690153e-05)) ((-3.791570e-09 2.209470e-10 -4.450730e-10) (8.306414e-06 -9.546176e-11 3.373988e-09))
3.239517      	((-6.502384e-08 3.306854e-04 -1.615485e-03) (2.767326e-09 2.150347e-04 -8.098844e-05)) ((-4.930594e-09 7.205309e-11 -5.474354e-10) (7.803733e-06 -1.999628e-10 4.290248e-09))
3.857325      	((-1.781145e-08 3.735206e-04 -1.595562e-03) (9.141248e-10 2.039554e-04 -8.466185e-05)) ((-6.049163e-09 -8.938912e-11 -6.727344e-10) (7.393280e-06 -4.144496e-10 5.274035e-09))
4.553123      	((1.236801e-07 4.225856e-04 -1.574804e-03) (4.027486e-09 1.949813e-04 -8.796738e-05)) ((-7.069625e-09 -2.755040e-10 -8.178327e-10) (7.056241e-06 -6.524831e-10 6.217341e-09))
5.32489       	((1.998567e-07 4.774950e-04 -1.552818e-03) (7.801262e-09 1.877634e-04 -9.073565e-05)) ((-7.896976e-09 -4.809934e-10 -9.708088e-10) (6.779562e-06 -9.028324e-10 6.990595e-09))
6.086967      	((3.607970e-07 5.328831e-04 -1.528285e-03) (1.262989e-08 1.825798e-04 -9.251534e-05)) ((-8.531917e-09 -6.595105e-10 -1.086139e-09) (6.574136e-06 -1.188792e-09 7.550796e-09))
6.839232      	((4.486392e-07 5.835276e-04 -1.500153e-03) (1.648205e-08 1.787291e-04 -9.336062e-05)) ((-9.104973e-09 -8.153283e-10 -1.184298e-09) (6.417591e-06 -1.489523e-09 7.674685e-09))
7.582951      	((5.355948e-07 6.277543e-04 -1.468731e-03) (2.119133e-08 1.758085e-04 -9.336617e-05)) ((-9.691590e-09 -9.785173e-10 -1.308258e-09) (6.300540e-06 -1.799853e-09 7.468098e-09))
8.321342      	((5.567240e-07 6.624499e-04 -1.435214e-03) (1.541037e-08 1.734104e-04 -9.292127e-05)) ((-1.030885e-08 -1.123001e-09 -1.419647e-09) (6.207113e-06 -2.015591e-09 7.579575e-09))
9.058139      	((6.391366e-07 6.877284e-04 -1.401413e-03) (1.265274e-09 1.714351e-04 -9.223046e-05)) ((-1.092997e-08 -1.234738e-09 -1.534318e-09) (6.133242e-06 -2.209010e-09 7.814971e-09))
9.79559       	((8.706190e-07 7.013664e-04 -1.365536e-03) (3.912746e-09 1.696316e-04 -9.140311e-05)) ((-1.152456e-08 -1.288449e-09 -1.630606e-09) (6.071969e-06 -2.276824e-09 7.633594e-09))
10.533915     	((9.755249e-07 7.036347e-04 -1.330241e-03) (1.649684e-08 1.678847e-04 -9.054723e-05)) ((-1.194398e-08 -1.275006e-09 -1.709534e-09) (6.017996e-06 -2.399918e-09 7.481205e-09))
11.272173     	((9.380457e-07 6.976004e-04 -1.297314e-03) (2.011587e-08 1.661893e-04 -8.968635e-05)) ((-1.225228e-08 -1.214716e-09 -1.748660e-09) (5.971112e-06 -2.448041e-09 7.750883e-09))
12.009474     	((1.016018e-06 6.879218e-04 -1.272645e-03) (1.900885e-08 1.645867e-04 -8.884731e-05)) ((-1.243597e-08 -1.161520e-09 -1.745650e-09) (5.932274e-06 -2.421199e-09 8.252844e-09))
12.745853     	((1.037799e-06 6.744048e-04 -1.250302e-03) (1.704939e-08 1.631335e-04 -8.806179e-05)) ((-1.247499e-08 -1.114051e-09 -1.711361e-09) (5.900783e-06 -2.404601e-09 8.622156e-09))
13.481796     	((9.455133e-07 6.630696e-04 -1.227456e-03) (1.849625e-08 1.617599e-04 -8.736979e-05)) ((-1.246834e-08 -1.066965e-09 -1.663820e-09) (5.871779e-06 -2.478406e-09 8.676257e-09))
14.217585     	((1.027582e-06 6.563328e-04 -1.205159e-03) (2.492401e-08 1.604882e-04 -8.674361e-05)) ((-1.245567e-08 -1.040608e-09 -1.638126e-09) (5.844607e-06 -2.812339e-09 8.314983e-09))
14.953205     	((1.062617e-06 6.519675e-04 -1.187390e-03) (3.312632e-08 1.593777e-04 -8.618036e-05)) ((-1.237182e-08 -1.040522e-09 -1.628647e-09) (5.819744e-06 -3.279007e-09 7.785039e-09))
15.688545     	((9.609824e-07 6.485361e-04 -1.172488e-03) (3.848006e-08 1.583998e-04 -8.571091e-05)) ((-1.229394e-08 -1.049782e-09 -1.627563e-09) (5.796116e-06 -3.557162e-09 7.176729e-09))
16.423715     	((8.906796e-07 6.445350e-04 -1.156378e-03) (3.963917e-08 1.574827e-04 -8.532713e-05)) ((-1.225237e-08 -1.044496e-09 -1.628208e-09) (5.772376e-06 -3.664993e-09 6.553508e-09))
17.158845     	((9.649816e-07 6.406548e-04 -1.139802e-03) (4.031145e-08 1.565871e-04 -8.500841e-05)) ((-1.222626e-08 -1.033177e-09 -1.628020e-09) (5.747869e-06 -3.751359e-09 6.148640e-09))
17.893906     	((1.132200e-06 6.368058e-04 -1.123177e-03) (4.248697e-08 1.557139e-04 -8.473920e-05)) ((-1.220239e-08 -1.012412e-09 -1.625089e-09) (5.723112e-06 -3.909362e-09 6.045755e-09))
18.628809     	((1.336294e-06 6.332675e-04 -1.107526e-03) (4.464375e-08 1.548749e-04 -8.451777e-05)) ((-1.217352e-08 -9.855426e-10 -1.623288e-09) (5.698518e-06 -4.096520e-09 6.220532e-09))
19.363704     	((1.595161e-06 6.297012e-04 -1.092349e-03) (5.029152e-08 1.540658e-04 -8.434452e-05)) ((-1.214597e-08 -9.550959e-10 -1.620973e-09) (5.674025e-06 -4.427152e-09 6.524940e-09))
20.098762     	((1.764563e-06 6.261936e-04 -1.077407e-03) (5.779405e-08 1.532816e-04 -8.420820e-05)) ((-1.212877e-08 -9.267592e-10 -1.616782e-09) (5.649789e-06 -4.878958e-09 6.812057e-09))
20.834006     	((1.959948e-06 6.226144e-04 -1.062478e-03) (6.681796e-08 1.525203e-04 -8.409606e-05)) ((-1.212058e-08 -8.925177e-10 -1.611874e-09) (5.626080e-06 -5.395223e-09 7.011806e-09))
21.569453     	((2.208248e-06 6.193947e-04 -1.048207e-03) (7.999066e-08 1.517883e-04 -8.398200e-05)) ((-1.214365e-08 -8.636508e-10 -1.606597e-09) (5.603947e-06 -5.996590e-09 7.064855e-09))
22.305129     	((2.363796e-06 6.164550e-04 -1.034459e-03) (9.542257e-08 1.510923e-04 -8.385323e-05)) ((-1.218317e-08 -8.387029e-10 -1.602818e-09) (5.584023e-06 -6.608799e-09 7.009357e-09))
23.041046     	((2.503772e-06 6.138037e-04 -1.021156e-03) (1.094505e-07 1.504367e-04 -8.371727e-05)) ((-1.222512e-08 -8.149559e-10 -1.599294e-09) (5.566078e-06 -7.209358e-09 7.021164e-09))
23.777232     	((2.630176e-06 6.117980e-04 -1.008445e-03) (1.209330e-07 1.498331e-04 -8.356954e-05)) ((-1.226987e-08 -7.948736e-10 -1.596353e-09) (5.550307e-06 -7.791496e-09 7.125670e-09))
24.513722     	((2.679342e-06 6.096761e-04 -9.959175e-04) (1.311708e-07 1.492709e-04 -8.341488e-05)) ((-1.229844e-08 -7.720852e-10 -1.593857e-09) (5.536210e-06 -8.354436e-09 7.189114e-09))
25.25055      	((2.814780e-06 6.074800e-04 -9.837862e-04) (1.440358e-07 1.487353e-04 -8.326291e-05)) ((-1.231287e-08 -7.485805e-10 -1.591496e-09) (5.522971e-06 -8.943886e-09 7.050088e-09))
25.987532     	((2.965281e-06 6.051849e-04 -9.717722e-04) (1.572957e-07 1.482206e-04 -8.312146e-05)) ((-1.231114e-08 -7.219913e-10 -1.588064e-09) (5.510095e-06 -9.642546e-09 6.966657e-09))
26.724491     	((3.090111e-06 6.027319e-04 -9.598661e-04) (1.697014e-07 1.477169e-04 -8.299357e-05)) ((-1.230236e-08 -6.959886e-10 -1.585523e-09) (5.497178e-06 -1.034513e-08 6.946244e-09))
27.461514     	((3.243289e-06 6.006516e-04 -9.483615e-04) (1.824092e-07 1.472303e-04 -8.286806e-05)) ((-1.229987e-08 -6.724402e-10 -1.583769e-09) (5.484568e-06 -1.099872e-08 6.894253e-09))
28.198683     	((3.387651e-06 5.984521e-04 -9.371014e-04) (1.955675e-07 1.467589e-04 -8.274492e-05)) ((-1.229084e-08 -6.493981e-10 -1.582876e-09) (5.472105e-06 -1.159524e-08 6.805855e-09))
28.936094     	((3.618245e-06 5.962009e-04 -9.260469e-04) (2.096737e-07 1.462944e-04 -8.263064e-05)) ((-1.227641e-08 -6.259473e-10 -1.582691e-09) (5.459399e-06 -1.220564e-08 6.764574e-09))
29.673892     	((3.923837e-06 5.939853e-04 -9.152934e-04) (2.259578e-07 1.458347e-04 -8.252516e-05)) ((-1.226057e-08 -5.998043e-10 -1.582954e-09) (5.446507e-06 -1.294645e-08 6.813683e-09))
30.412059     	((4.239606e-06 5.921866e-04 -9.050889e-04) (2.444046e-07 1.453868e-04 -8.241748e-05)) ((-1.225833e-08 -5.755413e-10 -1.583559e-09) (5.434024e-06 -1.378907e-08 6.878946e-09))
31.150509     	((4.484998e-06 5.907166e-04 -8.955401e-04) (2.643541e-07 1.449617e-04 -8.230014e-05)) ((-1.226430e-08 -5.547604e-10 -1.583875e-09) (5.422516e-06 -1.462205e-08 6.911016e-09))
31.889221     	((4.841772e-06 5.891469e-04 -8.863414e-04) (2.869994e-07 1.445595e-04 -8.217639e-05)) ((-1.226754e-08 -5.329022e-10 -1.583585e-09) (5.411912e-06 -1.547551e-08 6.930764e-09))
32.628193     	((5.264136e-06 5.874962e-04 -8.772343e-04) (3.131029e-07 1.441753e-04 -8.205391e-05)) ((-1.226146e-08 -5.073371e-10 -1.583073e-09) (5.401798e-06 -1.644959e-08 6.997405e-09))
33.367435     	((5.765957e-06 5.856400e-04 -8.680780e-04) (3.437501e-07 1.438002e-04 -8.194625e-05)) ((-1.223929e-08 -4.793287e-10 -1.582099e-09) (5.391422e-06 -1.762553e-08 7.118996e-09))
34.10697      	((6.287090e-06 5.838848e-04 -8.591000e-04) (3.779759e-07 1.434296e-04 -8.186239e-05)) ((-1.221255e-08 -4.515247e-10 -1.581491e-09) (5.380288e-06 -1.900117e-08 7.313176e-09))
34.846823     	((6.867050e-06 5.822162e-04 -8.504537e-04) (4.145251e-07 1.430632e-04 -8.180131e-05)) ((-1.218883e-08 -4.261175e-10 -1.581208e-09) (5.368504e-06 -2.054675e-08 7.585803e-09))
35.587017     	((7.569845e-06 5.806258e-04 -8.419599e-04) (4.555385e-07 1.427033e-04 -8.174917e-05)) ((-1.217925e-08 -3.993853e-10 -1.580808e-09) (5.356739e-06 -2.231761e-08 7.924201e-09))
36.327582     	((8.368465e-06 5.788377e-04 -8.333173e-04) (5.016147e-07 1.423484e-04 -8.169309e-05)) ((-1.217695e-08 -3.702648e-10 -1.580169e-09) (5.345461e-06 -2.436402e-08 8.386950e-09))
37.068533     	((9.179129e-06 5.769990e-04 -8.246106e-04) (5.510181e-07 1.419990e-04 -8.162727e-05)) ((-1.217919e-08 -3.419728e-10 -1.579067e-09) (5.334804e-06 -2.661180e-08 9.026228e-09))
37.809881     	((1.005734e-05 5.754201e-04 -8.160833e-04) (6.032725e-07 1.416631e-04 -8.154816e-05)) ((-1.218708e-08 -3.152658e-10 -1.577872e-09) (5.324930e-06 -2.902715e-08 9.822540e-09))
38.551642     	((1.095553e-05 5.740989e-04 -8.077692e-04) (6.587724e-07 1.413465e-04 -8.145617e-05)) ((-1.219741e-08 -2.900179e-10 -1.575971e-09) (5.315853e-06 -3.159397e-08 1.071284e-08))
39.293823     	((1.194189e-05 5.730854e-04 -7.997199e-04) (7.185836e-07 1.410517e-04 -8.135151e-05)) ((-1.221104e-08 -2.643960e-10 -1.573402e-09) (5.307556e-06 -3.433476e-08 1.170525e-08))
40.036424     	((1.294880e-05 5.720279e-04 -7.919440e-04) (7.822198e-07 1.407742e-04 -8.123651e-05)) ((-1.222155e-08 -2.387282e-10 -1.569873e-09) (5.299830e-06 -3.723234e-08 1.281281e-08))
40.779437     	((1.398664e-05 5.708718e-04 -7.844322e-04) (8.482540e-07 1.405067e-04 -8.111687e-05)) ((-1.222868e-08 -2.127914e-10 -1.566034e-09) (5.292344e-06 -4.026084e-08 1.403984e-08))
41.522863     	((1.511667e-05 5.695107e-04 -7.770392e-04) (9.175716e-07 1.402433e-04 -8.099804e-05)) ((-1.223030e-08 -1.838948e-10 -1.561857e-09) (5.284812e-06 -4.348550e-08 1.534341e-08))
42.266714     	((1.636305e-05 5.681416e-04 -7.699765e-04) (9.928318e-07 1.399823e-04 -8.088120e-05)) ((-1.223040e-08 -1.544674e-10 -1.557950e-09) (5.277167e-06 -4.694870e-08 1.666405e-08))
43.010997     	((1.772735e-05 5.667902e-04 -7.630463e-04) (1.075514e-06 1.397231e-04 -8.076575e-05)) ((-1.222890e-08 -1.233534e-10 -1.554316e-09) (5.269404e-06 -5.065782e-08 1.798616e-08))
43.755716     	((1.915856e-05 5.655768e-04 -7.561862e-04) (1.165772e-06 1.394681e-04 -8.064942e-05)) ((-1.222973e-08 -9.143912e-11 -1.551023e-09) (5.261664e-06 -5.462111e-08 1.931543e-08))
44.500867     	((2.066697e-05 5.644557e-04 -7.494579e-04) (1.262832e-06 1.392200e-04 -8.053118e-05)) ((-1.223063e-08 -5.833528e-11 -1.547801e-09) (5.254076e-06 -5.883258e-08 2.066534e-08))
45.246459     	((2.226918e-05 5.634206e-04 -7.428843e-04) (1.367313e-06 1.389798e-04 -8.041107e-05)) ((-1.223233e-08 -2.416390e-11 -1.544851e-09) (5.246706e-06 -6.332308e-08 2.201200e-08))
45.992499     	((2.398281e-05 5.624164e-04 -7.365047e-04) (1.480521e-06 1.387467e-04 -8.029068e-05)) ((-1.223360e-08 1.143204e-11 -1.542119e-09) (5.239542e-06 -6.814004e-08 2.332402e-08))
46.739005     	((2.581331e-05 5.615295e-04 -7.304015e-04) (1.602650e-06 1.385229e-04 -8.017123e-05)) ((-1.223456e-08 4.794956e-11 -1.539555e-09) (5.232669e-06 -7.330704e-08 2.463276e-08))
47.485984     	((2.781259e-05 5.606355e-04 -7.244753e-04) (1.734532e-06 1.383071e-04 -8.005437e-05)) ((-1.223363e-08 8.688213e-11 -1.536874e-09) (5.226036e-06 -7.887024e-08 2.598641e-08))
48.233423     	((2.997535e-05 5.597989e-04 -7.188401e-04) (1.876815e-06 1.380985e-04 -7.994294e-05)) ((-1.222983e-08 1.279130e-10 -1.534550e-09) (5.219572e-06 -8.486083e-08 2.741582e-08))
48.981305     	((3.232618e-05 5.590084e-04 -7.133057e-04) (2.030277e-06 1.378973e-04 -7.983776e-05)) ((-1.222454e-08 1.722497e-10 -1.532156e-09) (5.213282e-06 -9.130576e-08 2.894706e-08))
49.729615     	((3.487519e-05 5.582377e-04 -7.078821e-04) (2.195987e-06 1.377030e-04 -7.973881e-05)) ((-1.221749e-08 2.209803e-10 -1.529848e-09) (5.207163e-06 -9.826877e-08 3.059828e-08))
50.478335     	((3.768376e-05 5.575191e-04 -7.026260e-04) (2.377219e-06 1.375166e-04 -7.964648e-05)) ((-1.220787e-08 2.749951e-10 -1.527606e-09) (5.201261e-06 -1.058714e-07 3.233008e-08))
51.227442     	((4.078574e-05 5.568526e-04 -6.974989e-04) (2.576640e-06 1.373389e-04 -7.956060e-05)) ((-1.219575e-08 3.339848e-10 -1.525961e-09) (5.195622e-06 -1.142285e-07 3.414938e-08))
51.976908     	((4.418469e-05 5.561905e-04 -6.923036e-04) (2.795671e-06 1.371687e-04 -7.948077e-05)) ((-1.218077e-08 3.989161e-10 -1.524374e-09) (5.190222e-06 -1.234198e-07 3.608878e-08))
52.72671      	((4.789695e-05 5.555861e-04 -6.873220e-04) (3.035480e-06 1.370052e-04 -7.940640e-05)) ((-1.216400e-08 4.693034e-10 -1.522620e-09) (5.185069e-06 -1.335157e-07 3.816598e-08))
53.476832     	((5.194569e-05 5.550826e-04 -6.824879e-04) (3.297576e-06 1.368499e-04 -7.933498e-05)) ((-1.214827e-08 5.444659e-10 -1.520342e-09) (5.180279e-06 -1.445690e-07 4.039191e-08))
54.22725      	((5.641821e-05 5.546674e-04 -6.777273e-04) (3.584861e-06 1.367033e-04 -7.926450e-05)) ((-1.213399e-08 6.271283e-10 -1.517582e-09) (5.175915e-06 -1.567155e-07 4.280989e-08))
54.977932     	((6.127948e-05 5.543122e-04 -6.730249e-04) (3.899080e-06 1.365652e-04 -7.919402e-05)) ((-1.212160e-08 7.158418e-10 -1.514338e-09) (5.171993e-06 -1.700248e-07 4.544333e-08))
55.728793     	((6.660058e-05 5.540611e-04 -6.684372e-04) (4.242293e-06 1.364370e-04 -7.912185e-05)) ((-1.211239e-08 8.112127e-10 -1.510157e-09) (5.168600e-06 -1.845466e-07 4.830207e-08))
56.479479     	((7.239380e-05 5.538503e-04 -6.639005e-04) (4.616702e-06 1.363200e-04 -7.904656e-05)) ((-1.210434e-08 9.120837e-10 -1.505431e-09) (5.165792e-06 -2.003430e-07 5.141015e-08))
57.229943     	((7.869635e-05 5.537471e-04 -6.594664e-04) (5.023697e-06 1.362142e-04 -7.896852e-05)) ((-1.209741e-08 1.018910e-09 -1.500238e-09) (5.163532e-06 -2.174949e-07 5.479938e-08))
57.98013      	((8.555472e-05 5.536725e-04 -6.550808e-04) (5.466992e-06 1.361182e-04 -7.888987e-05)) ((-1.208867e-08 1.134528e-09 -1.494132e-09) (5.161676e-06 -2.361830e-07 5.847376e-08))
58.729981     	((9.300154e-05 5.536480e-04 -6.508576e-04) (5.950974e-06 1.360294e-04 -7.881238e-05)) ((-1.207576e-08 1.259391e-09 -1.486916e-09) (5.160113e-06 -2.564965e-07 6.241157e-08))
59.479437     	((1.010497e-04 5.537393e-04 -6.467494e-04) (6.477484e-06 1.359485e-04 -7.873637e-05)) ((-1.206119e-08 1.392368e-09 -1.478567e-09) (5.158846e-06 -2.784926e-07 6.664825e-08))
60.228433     	((1.097083e-04 5.539701e-04 -6.427539e-04) (7.048435e-06 1.358787e-04 -7.866263e-05)) ((-1.204484e-08 1.534565e-09 -1.468980e-09) (5.157952e-06 -3.023034e-07 7.126291e-08))
60.976904     	((1.191637e-04 5.543226e-04 -6.387412e-04) (7.672023e-06 1.358230e-04 -7.859488e-05)) ((-1.202588e-08 1.690659e-09 -1.458580e-09) (5.157405e-06 -3.282811e-07 7.613555e-08))
61.724816     	((1.292729e-04 5.549694e-04 -6.350620e-04) (8.352187e-06 1.357878e-04 -7.853022e-05)) ((-1.201049e-08 1.853520e-09 -1.447618e-09) (5.157460e-06 -3.565107e-07 8.110574e-08))
62.472128     	((1.401783e-04 5.558650e-04 -6.313950e-04) (9.091754e-06 1.357749e-04 -7.846593e-05)) ((-1.199739e-08 2.028725e-09 -1.435042e-09) (5.158352e-06 -3.870404e-07 8.616141e-08))
63.21877      	((1.519936e-04 5.570279e-04 -6.279164e-04) (9.898643e-06 1.357842e-04 -7.840391e-05)) ((-1.198359e-08 2.220295e-09 -1.420976e-09) (5.160141e-06 -4.202270e-07 9.129857e-08))
63.964669     	((1.647010e-04 5.585113e-04 -6.247907e-04) (1.077801e-05 1.358168e-04 -7.834450e-05)) ((-1.197069e-08 2.425396e-09 -1.405871e-09) (5.162899e-06 -4.563145e-07 9.656549e-08))
64.709765     	((1.782709e-04 5.604504e-04 -6.221390e-04) (1.172865e-05 1.358728e-04 -7.828761e-05)) ((-1.196220e-08 2.640594e-09 -1.389160e-09) (5.166730e-06 -4.953207e-07 1.022888e-07))
65.454018     	((1.927775e-04 5.628128e-04 -6.201679e-04) (1.275013e-05 1.359514e-04 -7.823987e-05)) ((-1.195248e-08 2.869384e-09 -1.370829e-09) (5.171487e-06 -5.373316e-07 1.086591e-07))
66.19737      	((2.085114e-04 5.655956e-04 -6.189366e-04) (1.384613e-05 1.360566e-04 -7.820805e-05)) ((-1.194305e-08 3.115346e-09 -1.350580e-09) (5.177021e-06 -5.826895e-07 1.157194e-07))
66.939736     	((2.254932e-04 5.688969e-04 -6.180749e-04) (1.502749e-05 1.361972e-04 -7.819297e-05)) ((-1.193784e-08 3.383283e-09 -1.328799e-09) (5.183591e-06 -6.318203e-07 1.232983e-07))
67.681055     	((2.436795e-04 5.727928e-04 -6.175139e-04) (1.630443e-05 1.363828e-04 -7.819283e-05)) ((-1.194077e-08 3.669218e-09 -1.306029e-09) (5.191489e-06 -6.849508e-07 1.310925e-07))
68.421272     	((2.634996e-04 5.776907e-04 -6.173567e-04) (1.768985e-05 1.366250e-04 -7.819967e-05)) ((-1.195484e-08 3.978275e-09 -1.282717e-09) (5.201351e-06 -7.424989e-07 1.390983e-07))
69.160328     	((2.848070e-04 5.835650e-04 -6.175278e-04) (1.918743e-05 1.369283e-04 -7.820956e-05)) ((-1.197520e-08 4.307980e-09 -1.256966e-09) (5.213622e-06 -8.046645e-07 1.477585e-07))
69.898182     	((3.075517e-04 5.908005e-04 -6.187987e-04) (2.079830e-05 1.372951e-04 -7.821312e-05)) ((-1.200925e-08 4.654908e-09 -1.229426e-09) (5.228893e-06 -8.713705e-07 1.574709e-07))
70.63486      	((3.318945e-04 5.991635e-04 -6.205076e-04) (2.252395e-05 1.377388e-04 -7.820997e-05)) ((-1.205658e-08 5.023470e-09 -1.201333e-09) (5.247653e-06 -9.428769e-07 1.684059e-07))
71.370291     	((3.577163e-04 6.089971e-04 -6.227333e-04) (2.437194e-05 1.382681e-04 -7.819428e-05)) ((-1.212613e-08 5.404418e-09 -1.174269e-09) (5.270399e-06 -1.019267e-06 1.803916e-07))
