# Forces      
# CofR        : (0.000000e+00 0.000000e+00 0.000000e+00)
# Time        forces(pressure viscous)	moments(pressure viscous)
0             	((0.000000e+00 0.000000e+00 0.000000e+00) (0.000000e+00 0.000000e+00 0.000000e+00)) ((0.000000e+00 0.000000e+00 0.000000e+00) (0.000000e+00 0.000000e+00 0.000000e+00))
0.012         	((-8.139319e-12 1.904831e-09 -2.479465e-11) (-2.432288e-13 2.136342e-11 -8.818967e-14)) ((-1.370282e-13 -4.844746e-16 -2.622311e-11) (4.079402e-13 1.118664e-14 -5.332232e-08))
0.0264        	((6.091834e-12 -6.908176e-10 5.688846e-11) (-2.738469e-13 2.279469e-11 -1.428832e-13)) ((-3.223702e-13 2.433350e-15 -7.864752e-12) (7.256724e-13 1.078755e-14 -4.666936e-08))
0.04368       	((-3.695540e-11 3.481275e-10 -3.649111e-11) (-3.473752e-13 1.494342e-11 -3.173084e-13)) ((1.481987e-13 -3.228635e-16 -4.118829e-12) (6.129970e-13 1.478208e-14 -4.035978e-08))
0.064416      	((-2.560091e-11 2.798524e-11 1.052598e-11) (-3.548477e-13 7.997598e-12 -2.512294e-13)) ((-4.146531e-14 -5.510852e-16 -2.763180e-12) (3.125969e-13 1.850440e-14 -3.456623e-08))
0.0892992     	((-3.693443e-11 1.676183e-10 -1.639636e-11) (-3.058108e-13 5.075194e-12 2.668933e-15)) ((4.511608e-14 -3.113991e-15 -2.224346e-12) (1.499379e-13 1.856149e-14 -2.944204e-08))
0.119159      	((-1.412537e-11 1.468075e-11 -1.547836e-11) (-4.383413e-13 4.328931e-12 2.178091e-13)) ((2.762278e-14 -2.218386e-15 -1.765113e-12) (-5.895122e-14 2.262323e-14 -2.505849e-08))
0.154991      	((-2.738403e-11 1.404765e-10 -1.577398e-11) (-5.506942e-13 3.214872e-12 4.824837e-13)) ((2.650653e-14 -3.018766e-15 -1.409792e-12) (-2.117541e-13 2.558635e-14 -2.144696e-08))
0.197989      	((-2.655463e-11 1.094173e-10 -1.965727e-11) (-4.171019e-13 2.012981e-12 8.457571e-13)) ((2.095616e-14 -1.566082e-15 -1.102166e-12) (-2.911266e-13 1.466697e-14 -1.854622e-08))
0.249587      	((-3.468818e-11 1.269712e-10 -1.872032e-11) (-8.134154e-14 7.028386e-13 1.295520e-12)) ((2.132824e-14 -6.032686e-16 -9.095568e-13) (-2.681603e-13 -4.059303e-15 -1.623812e-08))
0.311504      	((-5.842933e-11 1.633433e-10 -2.727266e-11) (1.754192e-13 -4.472409e-13 1.948762e-12)) ((1.532445e-14 5.812572e-16 -8.043264e-13) (-2.241359e-13 -1.810942e-14 -1.438298e-08))
0.385805      	((-7.023773e-11 2.119454e-10 -2.883359e-11) (1.945001e-13 4.265477e-13 2.693600e-12)) ((1.153000e-14 4.010444e-17 -7.013161e-13) (-1.696358e-13 -2.413834e-14 -1.285420e-08))
0.474966      	((-9.650563e-11 2.576504e-10 -3.792997e-11) (5.315110e-13 1.141156e-12 3.353813e-12)) ((-1.446761e-15 7.955520e-16 -6.120255e-13) (-5.330803e-14 -2.797714e-14 -1.155692e-08))
0.581959      	((-1.281977e-10 3.319816e-10 -4.467995e-11) (8.570093e-13 2.093346e-12 3.909057e-12)) ((-7.255809e-15 5.054995e-16 -5.675926e-13) (1.759956e-13 -3.417728e-14 -1.042880e-08))
0.710351      	((-1.553297e-10 3.295092e-10 -5.312778e-11) (2.273738e-12 5.210650e-12 4.393072e-12)) ((-1.439457e-14 3.433613e-16 -5.399610e-13) (3.666468e-13 -5.535391e-14 -9.431159e-09))
0.864421      	((-1.772062e-10 2.653902e-10 -5.335886e-11) (5.149872e-12 3.961639e-12 5.332922e-12)) ((-2.248485e-14 -9.857524e-16 -5.142997e-13) (3.267330e-13 -1.097279e-13 -8.539637e-09))
1.049306      	((-1.857716e-10 2.385763e-10 -5.304105e-11) (8.713038e-12 -3.331782e-12 6.029419e-12)) ((-2.835811e-14 -2.249892e-15 -4.868875e-13) (1.188375e-13 -1.654726e-13 -7.739200e-09))
1.271167      	((-1.649027e-10 2.056816e-10 -5.939580e-11) (1.542664e-11 -1.330144e-11 6.877840e-12)) ((-3.575227e-14 -3.625902e-15 -4.662551e-13) (-1.402360e-13 -2.953085e-13 -7.022247e-09))
1.5374        	((-1.245746e-10 2.027373e-10 -5.754556e-11) (2.578359e-11 -2.460419e-11 8.339202e-12)) ((-3.204389e-14 -4.509346e-15 -4.512759e-13) (-4.233218e-13 -5.694058e-13 -6.385117e-09))
1.85688       	((-8.655220e-11 1.543561e-10 -4.885732e-11) (3.852178e-11 -3.311812e-11 9.600646e-12)) ((-2.917609e-14 -5.328413e-15 -4.321156e-13) (-7.331714e-13 -8.944522e-13 -5.824302e-09))
2.240256      	((-4.705400e-11 9.946166e-11 -4.737708e-11) (5.417381e-11 -4.227854e-11 1.073391e-11)) ((-3.369640e-14 -6.344750e-15 -4.086759e-13) (-1.128683e-12 -1.328782e-12 -5.334208e-09))
2.700307      	((-3.212603e-11 6.100085e-11 -4.235542e-11) (7.071524e-11 -5.676315e-11 1.109189e-11)) ((-3.146687e-14 -7.027578e-15 -3.881142e-13) (-1.649797e-12 -1.836003e-12 -4.906571e-09))
3.252369      	((-1.028795e-12 3.768499e-11 -5.298509e-11) (8.644019e-11 -7.368701e-11 1.154739e-11)) ((-2.622731e-14 -7.318451e-15 -3.617068e-13) (-2.110677e-12 -2.307179e-12 -4.531651e-09))
3.914842      	((1.556574e-12 -1.745669e-11 -5.246920e-11) (9.697505e-11 -8.798774e-11 1.340227e-11)) ((-1.959339e-14 -5.892809e-15 -3.374484e-13) (-2.377668e-12 -2.605404e-12 -4.199599e-09))
4.709811      	((2.364283e-11 -5.501897e-11 -5.355108e-11) (1.014693e-10 -9.682837e-11 1.600382e-11)) ((-1.325671e-14 -2.863847e-15 -3.165300e-13) (-2.548112e-12 -2.763892e-12 -3.902039e-09))
5.663773      	((2.739576e-11 -2.865865e-11 -6.221004e-11) (1.001111e-10 -9.785471e-11 1.976799e-11)) ((-1.374511e-14 -1.207839e-15 -2.950656e-13) (-2.510197e-12 -2.768512e-12 -3.632872e-09))
6.808528      	((3.374014e-11 -2.575353e-11 -7.084062e-11) (9.188900e-11 -9.053224e-11 2.319031e-11)) ((-1.253956e-14 -1.935753e-16 -2.748002e-13) (-2.249215e-12 -2.583656e-12 -3.387295e-09))
8.182233      	((3.093202e-11 -1.582463e-11 -7.955797e-11) (7.941026e-11 -7.701878e-11 2.764464e-11)) ((-8.563669e-15 1.253314e-15 -2.553846e-13) (-1.939943e-12 -2.251061e-12 -3.161661e-09))
9.83068       	((2.482058e-11 8.650906e-12 -8.960025e-11) (6.354534e-11 -6.172316e-11 3.234116e-11)) ((-8.902142e-15 2.299381e-15 -2.371543e-13) (-1.558130e-12 -1.851784e-12 -2.953969e-09))
11.808816     	((5.568770e-12 4.435228e-11 -9.921871e-11) (4.766710e-11 -4.589152e-11 3.609766e-11)) ((-4.806973e-15 3.782240e-15 -2.202122e-13) (-1.071960e-12 -1.451330e-12 -2.763289e-09))
14.182579     	((-5.630506e-12 3.019672e-11 -1.104218e-10) (3.386348e-11 -3.286072e-11 4.056419e-11)) ((2.529058e-16 4.361122e-15 -2.038853e-13) (-6.546825e-13 -1.100639e-12 -2.588467e-09))
17.031095     	((-2.200161e-11 2.995806e-11 -1.265125e-10) (2.313125e-11 -2.304389e-11 4.534111e-11)) ((4.482235e-15 3.447976e-15 -1.896970e-13) (-4.451088e-13 -8.162411e-13 -2.428413e-09))
20.449314     	((-2.431525e-11 3.762366e-11 -1.405722e-10) (1.688073e-11 -1.692374e-11 5.079798e-11)) ((5.672106e-15 3.089752e-15 -1.765285e-13) (-3.470849e-13 -6.605208e-13 -2.282076e-09))
24.551176     	((-3.297922e-11 4.004650e-11 -1.507863e-10) (1.468703e-11 -1.487059e-11 5.673416e-11)) ((7.262833e-15 2.721037e-15 -1.648372e-13) (-3.588465e-13 -6.100045e-13 -2.148269e-09))
29.473411     	((-2.962779e-11 3.106783e-11 -1.648582e-10) (1.603505e-11 -1.712084e-11 6.277386e-11)) ((7.485160e-15 2.304222e-15 -1.545133e-13) (-4.334145e-13 -6.416305e-13 -2.025755e-09))
35.380094     	((-2.758839e-11 2.776958e-11 -1.870613e-10) (1.976510e-11 -2.248072e-11 6.960007e-11)) ((7.661998e-15 2.146615e-15 -1.454648e-13) (-5.942900e-13 -7.270943e-13 -1.913458e-09))
42.468112     	((-2.413554e-11 1.822660e-11 -2.052465e-10) (2.466214e-11 -2.900226e-11 7.677446e-11)) ((8.123551e-15 1.851435e-15 -1.372415e-13) (-7.819422e-13 -8.365205e-13 -1.810597e-09))
50.973735     	((-2.221019e-11 1.717100e-11 -2.228365e-10) (2.950369e-11 -3.457685e-11 8.491283e-11)) ((8.299693e-15 1.440542e-15 -1.294795e-13) (-9.476796e-13 -9.422809e-13 -1.716626e-09))
61.180482     	((-1.738912e-11 1.212514e-11 -2.428800e-10) (3.334513e-11 -3.921951e-11 9.439485e-11)) ((8.075898e-15 8.770007e-16 -1.222443e-13) (-1.081158e-12 -1.027292e-12 -1.630979e-09))
73.428578     	((-1.469699e-11 1.027907e-11 -2.604530e-10) (3.636354e-11 -4.253118e-11 1.048517e-10)) ((8.188049e-15 3.577347e-16 -1.157659e-13) (-1.178915e-12 -1.093797e-12 -1.553064e-09))
88.126294     	((-1.080741e-11 7.082660e-12 -2.763138e-10) (3.863465e-11 -4.459527e-11 1.154603e-10)) ((8.381505e-15 -9.594967e-17 -1.099768e-13) (-1.233557e-12 -1.141695e-12 -1.482310e-09))
105.763553    	((-8.855971e-12 4.036268e-12 -2.942265e-10) (4.007064e-11 -4.605038e-11 1.264090e-10)) ((8.356047e-15 -6.242391e-16 -1.048413e-13) (-1.274241e-12 -1.162616e-12 -1.418076e-09))
126.928263    	((-8.143561e-12 4.764414e-12 -3.131797e-10) (4.042004e-11 -4.694407e-11 1.375195e-10)) ((8.104578e-15 -1.179994e-15 -1.003658e-13) (-1.307364e-12 -1.149451e-12 -1.359701e-09))
152.325916    	((-5.883055e-12 4.234942e-12 -3.337142e-10) (4.013794e-11 -4.710016e-11 1.488134e-10)) ((7.766225e-15 -1.574884e-15 -9.621379e-14) (-1.317215e-12 -1.128049e-12 -1.306561e-09))
182.803099    	((-4.214536e-12 4.841260e-12 -3.538702e-10) (3.940595e-11 -4.675356e-11 1.604643e-10)) ((7.390548e-15 -1.873100e-15 -9.232190e-14) (-1.302635e-12 -1.099058e-12 -1.258129e-09))
219.375719    	((-1.947621e-12 5.146527e-12 -3.752897e-10) (3.808709e-11 -4.591149e-11 1.727202e-10)) ((7.176140e-15 -2.021912e-15 -8.871312e-14) (-1.270445e-12 -1.044257e-12 -1.213936e-09))
263.262863    	((-9.345613e-13 6.151947e-12 -3.968324e-10) (3.646902e-11 -4.467578e-11 1.850238e-10)) ((7.134171e-15 -2.278058e-15 -8.543326e-14) (-1.217684e-12 -9.786479e-13 -1.173592e-09))
315.927436    	((1.049634e-12 6.025365e-12 -4.180685e-10) (3.485315e-11 -4.342384e-11 1.979710e-10)) ((7.141544e-15 -2.627036e-15 -8.241174e-14) (-1.174989e-12 -9.206218e-13 -1.136753e-09))
379.124923    	((2.598547e-12 6.037795e-12 -4.389720e-10) (3.317580e-11 -4.201007e-11 2.112301e-10)) ((6.931779e-15 -2.889485e-15 -7.963034e-14) (-1.135220e-12 -8.627992e-13 -1.103157e-09))
454.961908    	((3.789058e-12 6.141310e-12 -4.588263e-10) (3.144995e-11 -4.019794e-11 2.246141e-10)) ((6.796271e-15 -3.036282e-15 -7.712348e-14) (-1.082698e-12 -8.038586e-13 -1.072571e-09))
545.966289    	((4.801615e-12 5.752526e-12 -4.776735e-10) (2.984949e-11 -3.816610e-11 2.381170e-10)) ((6.660949e-15 -3.305239e-15 -7.483587e-14) (-1.024575e-12 -7.504181e-13 -1.044780e-09))
655.171547    	((6.376256e-12 5.310772e-12 -4.963844e-10) (2.808120e-11 -3.604389e-11 2.517904e-10)) ((6.648376e-15 -3.482941e-15 -7.279960e-14) (-9.639292e-13 -6.927827e-13 -1.019597e-09))
786.217856    	((8.304854e-12 4.712181e-12 -5.141850e-10) (2.619699e-11 -3.402851e-11 2.654087e-10)) ((6.844263e-15 -3.635436e-15 -7.096142e-14) (-9.104816e-13 -6.370250e-13 -9.968340e-10))
943.473427    	((1.050318e-11 4.346118e-12 -5.311311e-10) (2.426318e-11 -3.209716e-11 2.786901e-10)) ((7.058342e-15 -3.705965e-15 -6.927279e-14) (-8.643146e-13 -5.812612e-13 -9.762908e-10))
1132.180113   	((1.255774e-11 4.095628e-12 -5.467070e-10) (2.241571e-11 -3.002228e-11 2.915908e-10)) ((7.179450e-15 -3.772518e-15 -6.768825e-14) (-8.115887e-13 -5.283720e-13 -9.577892e-10))
1358.628135   	((1.431670e-11 4.463642e-12 -5.611545e-10) (2.062430e-11 -2.788848e-11 3.043031e-10)) ((7.255222e-15 -3.849685e-15 -6.626225e-14) (-7.564792e-13 -4.757925e-13 -9.411437e-10))
1630.365763   	((1.580188e-11 4.808052e-12 -5.745817e-10) (1.897491e-11 -2.591920e-11 3.166114e-10)) ((7.405792e-15 -3.859413e-15 -6.498282e-14) (-7.055618e-13 -4.253690e-13 -9.261815e-10))
1956.450915   	((1.764151e-11 5.255379e-12 -5.871779e-10) (1.743096e-11 -2.419133e-11 3.284400e-10)) ((7.558029e-15 -3.932172e-15 -6.383551e-14) (-6.648119e-13 -3.770181e-13 -9.127431e-10))
2347.753098   	((1.999578e-11 6.537316e-12 -5.990641e-10) (1.605857e-11 -2.262119e-11 3.397070e-10)) ((7.646138e-15 -3.996225e-15 -6.281027e-14) (-6.300314e-13 -3.337472e-13 -9.006773e-10))
2817.315718   	((2.269493e-11 8.477362e-12 -6.100758e-10) (1.486988e-11 -2.113226e-11 3.503242e-10)) ((7.691311e-15 -4.091451e-15 -6.187987e-14) (-5.972799e-13 -2.963267e-13 -8.898451e-10))
3380.790861   	((2.599189e-11 1.055038e-11 -6.201998e-10) (1.385840e-11 -1.975019e-11 3.601767e-10)) ((7.679836e-15 -4.190434e-15 -6.100261e-14) (-5.641600e-13 -2.631662e-13 -8.801185e-10))
4056.961033   	((3.017013e-11 1.230294e-11 -6.300670e-10) (1.300035e-11 -1.845192e-11 3.692275e-10)) ((7.723428e-15 -4.331403e-15 -6.021930e-14) (-5.301803e-13 -2.333823e-13 -8.713793e-10))
4868.36524    	((3.476870e-11 1.386712e-11 -6.399122e-10) (1.224521e-11 -1.720585e-11 3.775271e-10)) ((7.798267e-15 -4.513822e-15 -5.952960e-14) (-4.983309e-13 -2.068489e-13 -8.635173e-10))
5841.422183   	((3.972250e-11 1.547881e-11 -6.498834e-10) (1.158258e-11 -1.605852e-11 3.850507e-10)) ((7.899712e-15 -4.708837e-15 -5.890515e-14) (-4.706832e-13 -1.828700e-13 -8.564358e-10))
6976.136469   	((4.503620e-11 1.740011e-11 -6.600706e-10) (1.102076e-11 -1.501118e-11 3.917740e-10)) ((7.993441e-15 -4.934798e-15 -5.833721e-14) (-4.463629e-13 -1.623930e-13 -8.500531e-10))
8272.512505   	((5.090311e-11 1.970149e-11 -6.705114e-10) (1.058412e-11 -1.403267e-11 3.977259e-10)) ((8.087025e-15 -5.150239e-15 -5.782402e-14) (-4.234800e-13 -1.450644e-13 -8.442936e-10))
9730.554455   	((5.765415e-11 2.244819e-11 -6.815373e-10) (1.027578e-11 -1.313126e-11 4.029585e-10)) ((8.186748e-15 -5.367433e-15 -5.734807e-14) (-4.025895e-13 -1.312926e-13 -8.390907e-10))
11347.252514  	((6.536040e-11 2.558223e-11 -6.933035e-10) (1.009435e-11 -1.230232e-11 4.075861e-10)) ((8.296627e-15 -5.595684e-15 -5.690267e-14) (-3.832022e-13 -1.211277e-13 -8.343847e-10))
12963.986649  	((7.371430e-11 2.925793e-11 -7.054400e-10) (9.995039e-12 -1.154310e-11 4.117308e-10)) ((8.387787e-15 -5.828782e-15 -5.647910e-14) (-3.653268e-13 -1.130536e-13 -8.301266e-10))
14580.753578  	((8.303830e-11 3.321858e-11 -7.178898e-10) (9.987814e-12 -1.084037e-11 4.154669e-10)) ((8.459249e-15 -6.056598e-15 -5.607687e-14) (-3.473334e-13 -1.069421e-13 -8.262702e-10))
16197.550493  	((9.264966e-11 3.674310e-11 -7.302538e-10) (1.004213e-11 -1.019177e-11 4.188621e-10)) ((8.535607e-15 -6.249612e-15 -5.568996e-14) (-3.286023e-13 -1.032788e-13 -8.227748e-10))
17814.374612  	((1.016388e-10 3.975313e-11 -7.420828e-10) (1.012846e-11 -9.595740e-12 4.219858e-10)) ((8.582873e-15 -6.391477e-15 -5.533612e-14) (-3.105612e-13 -1.007696e-13 -8.196030e-10))
19431.223474  	((1.097902e-10 4.241885e-11 -7.533054e-10) (1.023649e-11 -9.032186e-12 4.248880e-10)) ((8.632466e-15 -6.516113e-15 -5.500948e-14) (-2.932052e-13 -9.843109e-14 -8.167214e-10))
21048.094764  	((1.170331e-10 4.487399e-11 -7.637891e-10) (1.032622e-11 -8.500664e-12 4.275940e-10)) ((8.690888e-15 -6.629767e-15 -5.470429e-14) (-2.778021e-13 -9.507102e-14 -8.141007e-10))
22664.986106  	((1.232150e-10 4.722600e-11 -7.734594e-10) (1.039331e-11 -8.036460e-12 4.301165e-10)) ((8.751264e-15 -6.716974e-15 -5.442844e-14) (-2.653888e-13 -9.117488e-14 -8.117159e-10))
24281.895601  	((1.281723e-10 4.985046e-11 -7.823285e-10) (1.043236e-11 -7.616630e-12 4.324677e-10)) ((8.828869e-15 -6.766890e-15 -5.418274e-14) (-2.555234e-13 -8.695491e-14 -8.095439e-10))
25898.821547  	((1.319506e-10 5.272966e-11 -7.904491e-10) (1.044154e-11 -7.248373e-12 4.346644e-10)) ((8.918159e-15 -6.785723e-15 -5.397093e-14) (-2.482758e-13 -8.249614e-14 -8.075656e-10))
27515.762396  	((1.345410e-10 5.581962e-11 -7.978808e-10) (1.040833e-11 -6.922791e-12 4.367144e-10)) ((9.017297e-15 -6.777350e-15 -5.378468e-14) (-2.427438e-13 -7.807072e-14 -8.057623e-10))
29132.716738  	((1.361665e-10 5.899116e-11 -8.046503e-10) (1.034613e-11 -6.620469e-12 4.386387e-10)) ((9.112735e-15 -6.766474e-15 -5.361817e-14) (-2.379355e-13 -7.395672e-14 -8.041176e-10))
30749.683307  	((1.370058e-10 6.224615e-11 -8.108739e-10) (1.026654e-11 -6.334384e-12 4.404403e-10)) ((9.193206e-15 -6.748265e-15 -5.347237e-14) (-2.338868e-13 -6.982406e-14 -8.026163e-10))
32366.660956  	((1.371517e-10 6.568634e-11 -8.167279e-10) (1.017217e-11 -6.074220e-12 4.421202e-10)) ((9.280946e-15 -6.718242e-15 -5.334151e-14) (-2.304887e-13 -6.575590e-14 -8.012454e-10))
33983.648634  	((1.368332e-10 6.917553e-11 -8.221750e-10) (1.006395e-11 -5.829075e-12 4.436817e-10)) ((9.368886e-15 -6.685492e-15 -5.322386e-14) (-2.274481e-13 -6.186014e-14 -7.999928e-10))
35600.645399  	((1.361579e-10 7.254004e-11 -8.272294e-10) (9.943557e-12 -5.601121e-12 4.451265e-10)) ((9.463715e-15 -6.657979e-15 -5.311539e-14) (-2.249121e-13 -5.799170e-14 -7.988475e-10))
37217.650389  	((1.352773e-10 7.554874e-11 -8.317444e-10) (9.814515e-12 -5.398128e-12 4.464611e-10)) ((9.560052e-15 -6.632904e-15 -5.301042e-14) (-2.229754e-13 -5.440449e-14 -7.977995e-10))
