# Forces      
# CofR        : (0.000000e+00 0.000000e+00 0.000000e+00)
# Time        forces(pressure viscous)	moments(pressure viscous)
0             	((0.000000e+00 0.000000e+00 0.000000e+00) (3.528417e-08 9.091288e-11 3.806592e-03)) ((0.000000e+00 0.000000e+00 0.000000e+00) (-2.387769e-11 2.193556e-09 -5.263868e-14))
0.012         	((5.427564e-05 6.858892e-06 3.259447e-01) (-1.189976e-08 2.030105e-08 3.281341e-03)) ((2.874461e-10 2.990301e-07 -4.056628e-11) (1.511271e-09 -6.371956e-09 -2.130593e-11))
0.0264        	((3.791580e-05 2.526449e-05 -5.707686e-02) (1.130534e-07 8.386464e-08 2.555984e-03)) ((2.429439e-09 -9.297331e-08 6.974744e-11) (3.524334e-09 -8.933402e-09 5.314808e-11))
0.04368       	((-1.593133e-05 -9.043538e-06 -5.791811e-02) (-2.452530e-08 8.749884e-08 1.855418e-03)) ((-4.267932e-10 -1.077581e-07 7.367468e-11) (2.499734e-09 -2.623369e-09 -5.041520e-10))
0.064416      	((9.116149e-06 -1.672362e-05 -3.458693e-03) (-2.220149e-07 -6.815007e-09 1.514827e-03)) ((-3.030082e-09 -1.428203e-08 1.058318e-10) (-2.789708e-10 5.011375e-09 -7.700141e-10))
0.0892992     	((1.874842e-06 -2.272941e-06 8.654879e-04) (-1.276705e-07 -2.399688e-08 1.349841e-03)) ((6.920834e-11 -7.943329e-09 -1.585400e-10) (1.131720e-09 2.221404e-09 -8.091002e-10))
0.119159      	((1.279412e-05 -2.807420e-06 -6.152948e-04) (-2.333039e-08 1.087116e-10 1.175730e-03)) ((-4.837867e-10 -1.174983e-08 5.890735e-12) (2.888406e-09 -4.343456e-09 -3.675458e-10))
0.154991      	((9.051779e-06 -2.435043e-06 -2.822598e-04) (-1.123258e-10 -3.257937e-08 1.027660e-03)) ((-1.774475e-10 -9.556067e-09 2.649659e-11) (2.306430e-09 -7.564411e-09 -2.187986e-10))
0.197989      	((8.243144e-06 -2.657908e-06 -3.794579e-04) (4.236482e-08 -2.298402e-08 9.100504e-04)) ((-3.210277e-10 -1.134961e-08 6.797760e-12) (3.688750e-09 -1.425923e-08 -6.357544e-10))
0.249587      	((5.799989e-06 -2.365772e-06 -3.158085e-04) (1.439417e-07 1.658100e-08 8.094838e-04)) ((6.092539e-11 -1.131161e-08 6.973034e-13) (5.464784e-09 -2.319289e-08 -1.042534e-09))
0.311504      	((5.424496e-06 -2.042685e-06 -3.663007e-04) (1.879475e-07 4.660665e-08 7.235967e-04)) ((-2.507730e-11 -1.251263e-08 3.695789e-12) (7.010361e-09 -2.699529e-08 -1.032416e-09))
0.385805      	((4.447604e-06 -1.777986e-06 -3.835810e-04) (2.160772e-07 9.072993e-08 6.530641e-04)) ((-9.039568e-11 -1.277498e-08 1.686315e-11) (9.955793e-09 -2.892148e-08 -8.376800e-10))
0.474966      	((5.521168e-06 -1.488068e-06 -4.207630e-04) (2.733555e-07 1.402462e-07 5.970090e-04)) ((-1.619165e-10 -1.304256e-08 1.792188e-11) (1.343586e-08 -3.185257e-08 -6.244112e-10))
0.581959      	((4.745788e-06 -1.391642e-06 -4.299702e-04) (3.410789e-07 1.863040e-07 5.539853e-04)) ((-1.447846e-10 -1.306495e-08 3.052673e-11) (1.703326e-08 -3.630888e-08 -4.096843e-10))
0.710351      	((5.083756e-06 -1.217900e-06 -4.441509e-04) (4.079596e-07 2.245249e-07 5.218806e-04)) ((-1.196681e-10 -1.298194e-08 4.381529e-11) (2.031343e-08 -4.082776e-08 -4.204449e-10))
0.864421      	((5.289218e-06 -1.135857e-06 -4.455100e-04) (4.540853e-07 2.554680e-07 4.983664e-04)) ((-7.454640e-11 -1.289987e-08 4.842190e-11) (2.360830e-08 -4.316076e-08 -5.106825e-10))
1.049306      	((5.601438e-06 -1.032156e-06 -4.492001e-04) (5.014938e-07 2.803453e-07 4.812480e-04)) ((-3.695441e-11 -1.296289e-08 4.907651e-11) (2.658843e-08 -4.553512e-08 -5.393824e-10))
1.267148      	((5.770462e-06 -6.609456e-07 -4.476952e-04) (5.541178e-07 3.089785e-07 4.690246e-04)) ((-3.405008e-11 -1.300771e-08 5.162111e-11) (2.955747e-08 -4.938223e-08 -6.160740e-10))
1.518047      	((6.042835e-06 -4.115029e-07 -4.469574e-04) (6.145855e-07 3.509959e-07 4.605278e-04)) ((-3.737908e-11 -1.302870e-08 5.099101e-11) (3.347013e-08 -5.356682e-08 -6.237761e-10))
1.802089      	((6.253298e-06 -3.212239e-07 -4.434497e-04) (6.723128e-07 3.887792e-07 4.548296e-04)) ((-3.196603e-11 -1.302339e-08 5.650621e-11) (3.744564e-08 -5.751781e-08 -5.734635e-10))
2.119332      	((6.485666e-06 -1.979198e-07 -4.415740e-04) (7.072014e-07 4.208929e-07 4.512888e-04)) ((-4.406373e-11 -1.305514e-08 6.049025e-11) (4.120664e-08 -6.133473e-08 -4.644196e-10))
2.451611      	((6.789051e-06 -1.282590e-07 -4.395633e-04) (7.325463e-07 4.501238e-07 4.494947e-04)) ((-4.998818e-11 -1.311053e-08 6.127465e-11) (4.466027e-08 -6.483444e-08 -4.416300e-10))
2.783816      	((7.015302e-06 -1.582248e-07 -4.391264e-04) (7.593106e-07 4.737903e-07 4.490295e-04)) ((-5.052794e-11 -1.319816e-08 6.039095e-11) (4.744844e-08 -6.799239e-08 -4.533599e-10))
3.115593      	((7.165020e-06 -1.998581e-07 -4.387417e-04) (7.841569e-07 4.921657e-07 4.495925e-04)) ((-5.216890e-11 -1.328686e-08 5.906869e-11) (4.975349e-08 -7.065881e-08 -4.312737e-10))
3.446678      	((7.398444e-06 -1.491159e-07 -4.392751e-04) (8.090514e-07 5.075643e-07 4.509741e-04)) ((-5.257366e-11 -1.337768e-08 5.820750e-11) (5.177860e-08 -7.301685e-08 -4.244520e-10))
3.77687       	((7.704444e-06 -6.877185e-08 -4.400076e-04) (8.347826e-07 5.203675e-07 4.529867e-04)) ((-4.997330e-11 -1.347807e-08 5.801746e-11) (5.354652e-08 -7.527423e-08 -3.944734e-10))
4.105889      	((8.000099e-06 4.572890e-08 -4.408049e-04) (8.600832e-07 5.308543e-07 4.554218e-04)) ((-4.854256e-11 -1.358472e-08 5.789520e-11) (5.493950e-08 -7.746172e-08 -3.757220e-10))
4.433395      	((8.199134e-06 2.071319e-07 -4.408662e-04) (8.819941e-07 5.385415e-07 4.580142e-04)) ((-4.790795e-11 -1.369149e-08 5.838457e-11) (5.600592e-08 -7.943983e-08 -3.548832e-10))
4.759085      	((8.370715e-06 3.424487e-07 -4.395798e-04) (8.983810e-07 5.430835e-07 4.604662e-04)) ((-4.941794e-11 -1.377676e-08 5.933100e-11) (5.676566e-08 -8.099459e-08 -3.166544e-10))
5.082802      	((8.550248e-06 4.744926e-07 -4.366037e-04) (9.093961e-07 5.444293e-07 4.625021e-04)) ((-5.289431e-11 -1.381582e-08 5.944399e-11) (5.721242e-08 -8.202276e-08 -2.777603e-10))
5.40467       	((8.694298e-06 6.333858e-07 -4.324183e-04) (9.134297e-07 5.440726e-07 4.639314e-04)) ((-5.832021e-11 -1.380802e-08 5.896584e-11) (5.746479e-08 -8.248445e-08 -2.557204e-10))
5.725151      	((8.838441e-06 7.763907e-07 -4.281767e-04) (9.123882e-07 5.443337e-07 4.647082e-04)) ((-6.468429e-11 -1.376064e-08 5.955217e-11) (5.760906e-08 -8.255163e-08 -2.867380e-10))
6.044947      	((8.869634e-06 8.009662e-07 -4.254236e-04) (9.102863e-07 5.451792e-07 4.649411e-04)) ((-6.207631e-11 -1.370260e-08 5.926726e-11) (5.763283e-08 -8.240915e-08 -3.436625e-10))
6.364787      	((8.871380e-06 7.641176e-07 -4.249082e-04) (9.088200e-07 5.452951e-07 4.648410e-04)) ((-5.860634e-11 -1.365578e-08 5.951704e-11) (5.750364e-08 -8.221449e-08 -3.779244e-10))
6.685154      	((8.811745e-06 7.238667e-07 -4.263669e-04) (9.076061e-07 5.458084e-07 4.646240e-04)) ((-5.521734e-11 -1.363498e-08 6.072881e-11) (5.733815e-08 -8.200791e-08 -4.035361e-10))
7.006125      	((8.765562e-06 6.874319e-07 -4.284959e-04) (9.072028e-07 5.463332e-07 4.644331e-04)) ((-5.098426e-11 -1.363742e-08 6.164465e-11) (5.717609e-08 -8.179100e-08 -4.200684e-10))
7.327529      	((8.720825e-06 6.688367e-07 -4.301754e-04) (9.076448e-07 5.465677e-07 4.643176e-04)) ((-4.895183e-11 -1.365163e-08 6.190949e-11) (5.705041e-08 -8.157258e-08 -4.252983e-10))
7.6491        	((8.739885e-06 6.875410e-07 -4.308044e-04) (9.084572e-07 5.466683e-07 4.642631e-04)) ((-4.821861e-11 -1.365979e-08 6.171981e-11) (5.696832e-08 -8.143815e-08 -4.265990e-10))
7.970665      	((8.790245e-06 7.185636e-07 -4.307506e-04) (9.093098e-07 5.467680e-07 4.642385e-04)) ((-4.895119e-11 -1.366028e-08 6.118490e-11) (5.694497e-08 -8.142276e-08 -4.210702e-10))
8.292195      	((8.830127e-06 7.413442e-07 -4.305836e-04) (9.100705e-07 5.473237e-07 4.642287e-04)) ((-4.916662e-11 -1.365801e-08 6.088004e-11) (5.697244e-08 -8.147953e-08 -4.150148e-10))
8.613729      	((8.863786e-06 7.486785e-07 -4.306503e-04) (9.108636e-07 5.480120e-07 4.642343e-04)) ((-4.830664e-11 -1.365786e-08 6.087328e-11) (5.700902e-08 -8.156576e-08 -4.146042e-10))
8.935289      	((8.880670e-06 7.529438e-07 -4.308205e-04) (9.117011e-07 5.485847e-07 4.642547e-04)) ((-4.732682e-11 -1.366104e-08 6.089881e-11) (5.705336e-08 -8.165039e-08 -4.156891e-10))
9.256857      	((8.884416e-06 7.572496e-07 -4.308920e-04) (9.123487e-07 5.490485e-07 4.642824e-04)) ((-4.663377e-11 -1.366488e-08 6.091418e-11) (5.709439e-08 -8.171297e-08 -4.172185e-10))
9.578406      	((8.888316e-06 7.624928e-07 -4.308301e-04) (9.126992e-07 5.493848e-07 4.643095e-04)) ((-4.632786e-11 -1.366710e-08 6.089033e-11) (5.712599e-08 -8.175282e-08 -4.187317e-10))
9.899926      	((8.891831e-06 7.654046e-07 -4.307534e-04) (9.128334e-07 5.495906e-07 4.643323e-04)) ((-4.608275e-11 -1.366791e-08 6.085105e-11) (5.714783e-08 -8.178065e-08 -4.194404e-10))
10.221425     	((8.896617e-06 7.677389e-07 -4.307357e-04) (9.128754e-07 5.496884e-07 4.643511e-04)) ((-4.582438e-11 -1.366858e-08 6.081236e-11) (5.716154e-08 -8.180237e-08 -4.196978e-10))
10.54291      	((8.899027e-06 7.685687e-07 -4.307414e-04) (9.129089e-07 5.497484e-07 4.643666e-04)) ((-4.558653e-11 -1.366955e-08 6.078479e-11) (5.717154e-08 -8.181936e-08 -4.199504e-10))
10.864384     	((8.900350e-06 7.691842e-07 -4.307353e-04) (9.129805e-07 5.498253e-07 4.643785e-04)) ((-4.538727e-11 -1.367041e-08 6.075808e-11) (5.718081e-08 -8.183403e-08 -4.202485e-10))
11.185847     	((8.900422e-06 7.691878e-07 -4.307083e-04) (9.130760e-07 5.499455e-07 4.643864e-04)) ((-4.529180e-11 -1.367092e-08 6.073320e-11) (5.719092e-08 -8.184715e-08 -4.204114e-10))
11.507304     	((8.901830e-06 7.697928e-07 -4.306912e-04) (9.131926e-07 5.501183e-07 4.643911e-04)) ((-4.519664e-11 -1.367119e-08 6.070692e-11) (5.720258e-08 -8.185955e-08 -4.204578e-10))
11.828757     	((8.902280e-06 7.698575e-07 -4.306891e-04) (9.133557e-07 5.503398e-07 4.643936e-04)) ((-4.502601e-11 -1.367149e-08 6.068013e-11) (5.721562e-08 -8.187270e-08 -4.204994e-10))
12.15021      	((8.902521e-06 7.700333e-07 -4.306925e-04) (9.135726e-07 5.505999e-07 4.643947e-04)) ((-4.484759e-11 -1.367184e-08 6.065402e-11) (5.722977e-08 -8.188709e-08 -4.206154e-10))
12.471664     	((8.902962e-06 7.706782e-07 -4.306951e-04) (9.138362e-07 5.508999e-07 4.643949e-04)) ((-4.468678e-11 -1.367217e-08 6.062979e-11) (5.724549e-08 -8.190301e-08 -4.207996e-10))
12.793119     	((8.903775e-06 7.715057e-07 -4.306983e-04) (9.141471e-07 5.512434e-07 4.643948e-04)) ((-4.453677e-11 -1.367247e-08 6.060646e-11) (5.726346e-08 -8.192116e-08 -4.210304e-10))
13.114575     	((8.904757e-06 7.723805e-07 -4.307060e-04) (9.144969e-07 5.516231e-07 4.643946e-04)) ((-4.439781e-11 -1.367280e-08 6.058456e-11) (5.728359e-08 -8.194144e-08 -4.212953e-10))
13.436034     	((8.905873e-06 7.731988e-07 -4.307126e-04) (9.148500e-07 5.520033e-07 4.643945e-04)) ((-4.427164e-11 -1.367315e-08 6.055939e-11) (5.730415e-08 -8.196220e-08 -4.214811e-10))
13.757494     	((8.906922e-06 7.741213e-07 -4.307171e-04) (9.151581e-07 5.523423e-07 4.643946e-04)) ((-4.417344e-11 -1.367347e-08 6.053700e-11) (5.732304e-08 -8.198109e-08 -4.216330e-10))
14.078954     	((8.907729e-06 7.748035e-07 -4.307182e-04) (9.154148e-07 5.526364e-07 4.643949e-04)) ((-4.409864e-11 -1.367375e-08 6.051393e-11) (5.734011e-08 -8.199778e-08 -4.218226e-10))
14.400415     	((8.908211e-06 7.753691e-07 -4.307187e-04) (9.156414e-07 5.529064e-07 4.643952e-04)) ((-4.403364e-11 -1.367402e-08 6.049065e-11) (5.735642e-08 -8.201334e-08 -4.220335e-10))
14.721875     	((8.908479e-06 7.756427e-07 -4.307186e-04) (9.158533e-07 5.531646e-07 4.643956e-04)) ((-4.397317e-11 -1.367428e-08 6.046733e-11) (5.737249e-08 -8.202834e-08 -4.222754e-10))
15.043336     	((8.908657e-06 7.759450e-07 -4.307185e-04) (9.160497e-07 5.534166e-07 4.643960e-04)) ((-4.394762e-11 -1.367455e-08 6.043081e-11) (5.738853e-08 -8.204264e-08 -4.224752e-10))
15.364797     	((8.908912e-06 7.762323e-07 -4.307183e-04) (9.162165e-07 5.536480e-07 4.643964e-04)) ((-4.393011e-11 -1.367477e-08 6.040460e-11) (5.740360e-08 -8.205538e-08 -4.225446e-10))
15.686258     	((8.909180e-06 7.765356e-07 -4.307182e-04) (9.163778e-07 5.538618e-07 4.643968e-04)) ((-4.394299e-11 -1.367496e-08 6.037969e-11) (5.741786e-08 -8.206772e-08 -4.227346e-10))
16.007718     	((8.909440e-06 7.767996e-07 -4.307180e-04) (9.165517e-07 5.540806e-07 4.643972e-04)) ((-4.398697e-11 -1.367511e-08 6.035443e-11) (5.743244e-08 -8.208062e-08 -4.229907e-10))
16.329178     	((8.909630e-06 7.770347e-07 -4.307177e-04) (9.167268e-07 5.543021e-07 4.643975e-04)) ((-4.405163e-11 -1.367522e-08 6.033052e-11) (5.744711e-08 -8.209345e-08 -4.231761e-10))
16.650639     	((8.909777e-06 7.772512e-07 -4.307175e-04) (9.168950e-07 5.545182e-07 4.643978e-04)) ((-4.412777e-11 -1.367533e-08 6.030780e-11) (5.746137e-08 -8.210571e-08 -4.233152e-10))
16.972099     	((8.910047e-06 7.775158e-07 -4.307176e-04) (9.170552e-07 5.547275e-07 4.643981e-04)) ((-4.421288e-11 -1.367541e-08 6.028699e-11) (5.747511e-08 -8.211734e-08 -4.234044e-10))
17.293559     	((8.910248e-06 7.777462e-07 -4.307176e-04) (9.172078e-07 5.549280e-07 4.643984e-04)) ((-4.430939e-11 -1.367548e-08 6.026707e-11) (5.748824e-08 -8.212836e-08 -4.235078e-10))
17.615019     	((8.910403e-06 7.779517e-07 -4.307176e-04) (9.173528e-07 5.551196e-07 4.643986e-04)) ((-4.440857e-11 -1.367554e-08 6.024832e-11) (5.750074e-08 -8.213874e-08 -4.236344e-10))
17.93648      	((8.910542e-06 7.781334e-07 -4.307176e-04) (9.174898e-07 5.553040e-07 4.643988e-04)) ((-4.450872e-11 -1.367560e-08 6.023074e-11) (5.751270e-08 -8.214847e-08 -4.237402e-10))
18.25794      	((8.910699e-06 7.783417e-07 -4.307177e-04) (9.176220e-07 5.554812e-07 4.643990e-04)) ((-4.460748e-11 -1.367566e-08 6.021398e-11) (5.752418e-08 -8.215777e-08 -4.238913e-10))
18.5794       	((8.910840e-06 7.784661e-07 -4.307177e-04) (9.177441e-07 5.556467e-07 4.643992e-04)) ((-4.472085e-11 -1.367570e-08 6.019730e-11) (5.753496e-08 -8.216642e-08 -4.240638e-10))
18.900861     	((8.910916e-06 7.785502e-07 -4.307177e-04) (9.178573e-07 5.558040e-07 4.643993e-04)) ((-4.481820e-11 -1.367574e-08 6.018268e-11) (5.754500e-08 -8.217423e-08 -4.242098e-10))
19.222321     	((8.910974e-06 7.786666e-07 -4.307177e-04) (9.179665e-07 5.559558e-07 4.643995e-04)) ((-4.492432e-11 -1.367578e-08 6.016853e-11) (5.755465e-08 -8.218170e-08 -4.243585e-10))
19.543782     	((8.911101e-06 7.788448e-07 -4.307178e-04) (9.180713e-07 5.561023e-07 4.643996e-04)) ((-4.503207e-11 -1.367581e-08 6.015522e-11) (5.756397e-08 -8.218883e-08 -4.245060e-10))
19.865242     	((8.911332e-06 7.790549e-07 -4.307179e-04) (9.181745e-07 5.562469e-07 4.643998e-04)) ((-4.514688e-11 -1.367584e-08 6.014053e-11) (5.757329e-08 -8.219594e-08 -4.246607e-10))
20.186703     	((8.911332e-06 7.790676e-07 -4.307179e-04) (9.182635e-07 5.563791e-07 4.643999e-04)) ((-4.520904e-11 -1.367590e-08 6.013007e-11) (5.758149e-08 -8.220184e-08 -4.248113e-10))
20.508164     	((8.911510e-06 7.792911e-07 -4.307178e-04) (9.183466e-07 5.565019e-07 4.644000e-04)) ((-4.530346e-11 -1.367593e-08 6.011987e-11) (5.758909e-08 -8.220734e-08 -4.249572e-10))
20.829624     	((8.911599e-06 7.795115e-07 -4.307178e-04) (9.184288e-07 5.566198e-07 4.644001e-04)) ((-4.541580e-11 -1.367594e-08 6.011125e-11) (5.759645e-08 -8.221273e-08 -4.251045e-10))
21.151085     	((8.911558e-06 7.794618e-07 -4.307178e-04) (9.185077e-07 5.567349e-07 4.644002e-04)) ((-4.552222e-11 -1.367596e-08 6.009995e-11) (5.760361e-08 -8.221789e-08 -4.252336e-10))
21.472546     	((8.911568e-06 7.794735e-07 -4.307178e-04) (9.185789e-07 5.568442e-07 4.644003e-04)) ((-4.559825e-11 -1.367599e-08 6.009078e-11) (5.761025e-08 -8.222247e-08 -4.253447e-10))
21.794007     	((8.911745e-06 7.796669e-07 -4.307178e-04) (9.186448e-07 5.569478e-07 4.644004e-04)) ((-4.568872e-11 -1.367601e-08 6.008229e-11) (5.761660e-08 -8.222676e-08 -4.254491e-10))
22.115468     	((8.911837e-06 7.797916e-07 -4.307178e-04) (9.187067e-07 5.570471e-07 4.644005e-04)) ((-4.577034e-11 -1.367604e-08 6.007465e-11) (5.762266e-08 -8.223074e-08 -4.255707e-10))
22.436929     	((8.911886e-06 7.798641e-07 -4.307178e-04) (9.187622e-07 5.571390e-07 4.644005e-04)) ((-4.584445e-11 -1.367607e-08 6.006738e-11) (5.762823e-08 -8.223427e-08 -4.256984e-10))
22.75839      	((8.911929e-06 7.799522e-07 -4.307178e-04) (9.188146e-07 5.572263e-07 4.644006e-04)) ((-4.592221e-11 -1.367610e-08 6.006054e-11) (5.763354e-08 -8.223762e-08 -4.258291e-10))
23.07985      	((8.911990e-06 7.800489e-07 -4.307178e-04) (9.188638e-07 5.573094e-07 4.644007e-04)) ((-4.599850e-11 -1.367613e-08 6.005415e-11) (5.763859e-08 -8.224073e-08 -4.259755e-10))
23.401311     	((8.912032e-06 7.800965e-07 -4.307178e-04) (9.189087e-07 5.573881e-07 4.644007e-04)) ((-4.607005e-11 -1.367615e-08 6.004827e-11) (5.764333e-08 -8.224355e-08 -4.261153e-10))
23.722773     	((8.912076e-06 7.801584e-07 -4.307178e-04) (9.189497e-07 5.574629e-07 4.644008e-04)) ((-4.614130e-11 -1.367618e-08 6.004280e-11) (5.764782e-08 -8.224613e-08 -4.262310e-10))
24.044234     	((8.912105e-06 7.802325e-07 -4.307178e-04) (9.189880e-07 5.575339e-07 4.644008e-04)) ((-4.621289e-11 -1.367620e-08 6.003783e-11) (5.765207e-08 -8.224851e-08 -4.263552e-10))
24.365695     	((8.912121e-06 7.802874e-07 -4.307178e-04) (9.190235e-07 5.576011e-07 4.644009e-04)) ((-4.628349e-11 -1.367622e-08 6.003318e-11) (5.765609e-08 -8.225071e-08 -4.264901e-10))
24.687156     	((8.912131e-06 7.803248e-07 -4.307178e-04) (9.190560e-07 5.576660e-07 4.644009e-04)) ((-4.634905e-11 -1.367625e-08 6.002861e-11) (5.765994e-08 -8.225271e-08 -4.265980e-10))
25.008617     	((8.912140e-06 7.803571e-07 -4.307178e-04) (9.190862e-07 5.577288e-07 4.644010e-04)) ((-4.641195e-11 -1.367628e-08 6.002429e-11) (5.766364e-08 -8.225455e-08 -4.266936e-10))
25.330078     	((8.912159e-06 7.803957e-07 -4.307178e-04) (9.191139e-07 5.577874e-07 4.644010e-04)) ((-4.647362e-11 -1.367630e-08 6.002062e-11) (5.766711e-08 -8.225624e-08 -4.268152e-10))
25.651539     	((8.912186e-06 7.804331e-07 -4.307178e-04) (9.191391e-07 5.578427e-07 4.644011e-04)) ((-4.653524e-11 -1.367632e-08 6.001709e-11) (5.767038e-08 -8.225777e-08 -4.269381e-10))
25.973001     	((8.912198e-06 7.804835e-07 -4.307178e-04) (9.191615e-07 5.578947e-07 4.644011e-04)) ((-4.659179e-11 -1.367635e-08 6.001434e-11) (5.767341e-08 -8.225910e-08 -4.270531e-10))
26.294462     	((8.912239e-06 7.805693e-07 -4.307178e-04) (9.191842e-07 5.579452e-07 4.644011e-04)) ((-4.665826e-11 -1.367636e-08 6.001138e-11) (5.767642e-08 -8.226048e-08 -4.271794e-10))
26.615923     	((8.912239e-06 7.805894e-07 -4.307178e-04) (9.192049e-07 5.579938e-07 4.644012e-04)) ((-4.671811e-11 -1.367638e-08 6.000850e-11) (5.767931e-08 -8.226173e-08 -4.273008e-10))
26.937385     	((8.912220e-06 7.805629e-07 -4.307178e-04) (9.192213e-07 5.580378e-07 4.644012e-04)) ((-4.676338e-11 -1.367641e-08 6.000606e-11) (5.768187e-08 -8.226269e-08 -4.274052e-10))
27.258846     	((8.912290e-06 7.806350e-07 -4.307178e-04) (9.192382e-07 5.580791e-07 4.644012e-04)) ((-4.681638e-11 -1.367643e-08 6.000394e-11) (5.768430e-08 -8.226370e-08 -4.275039e-10))
27.580308     	((8.912296e-06 7.807134e-07 -4.307178e-04) (9.192539e-07 5.581174e-07 4.644012e-04)) ((-4.687281e-11 -1.367645e-08 6.000221e-11) (5.768656e-08 -8.226464e-08 -4.275960e-10))
27.901769     	((8.912265e-06 7.807066e-07 -4.307178e-04) (9.192697e-07 5.581545e-07 4.644013e-04)) ((-4.692786e-11 -1.367647e-08 6.000008e-11) (5.768877e-08 -8.226557e-08 -4.277043e-10))
28.223231     	((8.912222e-06 7.806646e-07 -4.307178e-04) (9.192825e-07 5.581894e-07 4.644013e-04)) ((-4.696902e-11 -1.367650e-08 5.999864e-11) (5.769078e-08 -8.226628e-08 -4.278202e-10))
28.544692     	((8.912293e-06 7.807078e-07 -4.307178e-04) (9.192944e-07 5.582227e-07 4.644013e-04)) ((-4.701569e-11 -1.367652e-08 5.999711e-11) (5.769273e-08 -8.226697e-08 -4.279237e-10))
28.866154     	((8.912348e-06 7.807822e-07 -4.307178e-04) (9.193053e-07 5.582545e-07 4.644013e-04)) ((-4.706271e-11 -1.367654e-08 5.999584e-11) (5.769459e-08 -8.226762e-08 -4.280164e-10))
29.187615     	((8.912316e-06 7.808052e-07 -4.307178e-04) (9.193147e-07 5.582838e-07 4.644013e-04)) ((-4.711079e-11 -1.367656e-08 5.999485e-11) (5.769629e-08 -8.226815e-08 -4.281186e-10))
29.509077     	((8.912259e-06 7.807730e-07 -4.307177e-04) (9.193238e-07 5.583116e-07 4.644014e-04)) ((-4.715637e-11 -1.367658e-08 5.999379e-11) (5.769792e-08 -8.226866e-08 -4.282264e-10))
29.830538     	((8.912263e-06 7.807734e-07 -4.307177e-04) (9.193322e-07 5.583386e-07 4.644014e-04)) ((-4.719675e-11 -1.367660e-08 5.999283e-11) (5.769948e-08 -8.226912e-08 -4.283310e-10))
30.152        	((8.912309e-06 7.808112e-07 -4.307177e-04) (9.193392e-07 5.583648e-07 4.644014e-04)) ((-4.723953e-11 -1.367662e-08 5.999210e-11) (5.770101e-08 -8.226952e-08 -4.284179e-10))
30.473461     	((8.912313e-06 7.808381e-07 -4.307177e-04) (9.193445e-07 5.583895e-07 4.644014e-04)) ((-4.728042e-11 -1.367664e-08 5.999144e-11) (5.770244e-08 -8.226982e-08 -4.285068e-10))
30.794923     	((8.912261e-06 7.808478e-07 -4.307177e-04) (9.193489e-07 5.584117e-07 4.644014e-04)) ((-4.731686e-11 -1.367667e-08 5.999118e-11) (5.770372e-08 -8.227004e-08 -4.286292e-10))
31.116385     	((8.912272e-06 7.808434e-07 -4.307177e-04) (9.193540e-07 5.584338e-07 4.644014e-04)) ((-4.736024e-11 -1.367668e-08 5.999059e-11) (5.770503e-08 -8.227034e-08 -4.287198e-10))
31.437846     	((8.912265e-06 7.808563e-07 -4.307177e-04) (9.193577e-07 5.584558e-07 4.644014e-04)) ((-4.739716e-11 -1.367670e-08 5.999006e-11) (5.770631e-08 -8.227055e-08 -4.288055e-10))
31.759308     	((8.912261e-06 7.808695e-07 -4.307177e-04) (9.193595e-07 5.584763e-07 4.644014e-04)) ((-4.743079e-11 -1.367673e-08 5.998977e-11) (5.770749e-08 -8.227062e-08 -4.289027e-10))
32.08077      	((8.912283e-06 7.808884e-07 -4.307177e-04) (9.193614e-07 5.584959e-07 4.644015e-04)) ((-4.746600e-11 -1.367675e-08 5.998973e-11) (5.770863e-08 -8.227071e-08 -4.289873e-10))
32.402231     	((8.912286e-06 7.809178e-07 -4.307177e-04) (9.193627e-07 5.585145e-07 4.644015e-04)) ((-4.750083e-11 -1.367677e-08 5.998968e-11) (5.770971e-08 -8.227078e-08 -4.290846e-10))
32.723693     	((8.912243e-06 7.809357e-07 -4.307177e-04) (9.193627e-07 5.585326e-07 4.644015e-04)) ((-4.753616e-11 -1.367679e-08 5.998962e-11) (5.771076e-08 -8.227075e-08 -4.291665e-10))
33.045155     	((8.912233e-06 7.809140e-07 -4.307177e-04) (9.193629e-07 5.585492e-07 4.644015e-04)) ((-4.756850e-11 -1.367681e-08 5.998956e-11) (5.771172e-08 -8.227074e-08 -4.292524e-10))
33.366617     	((8.912259e-06 7.809178e-07 -4.307177e-04) (9.193630e-07 5.585650e-07 4.644015e-04)) ((-4.759936e-11 -1.367683e-08 5.998964e-11) (5.771263e-08 -8.227073e-08 -4.293308e-10))
33.688078     	((8.912263e-06 7.809480e-07 -4.307177e-04) (9.193626e-07 5.585803e-07 4.644015e-04)) ((-4.763156e-11 -1.367685e-08 5.998984e-11) (5.771352e-08 -8.227070e-08 -4.294136e-10))
34.00954      	((8.912245e-06 7.809668e-07 -4.307177e-04) (9.193615e-07 5.585953e-07 4.644015e-04)) ((-4.766348e-11 -1.367687e-08 5.999004e-11) (5.771439e-08 -8.227062e-08 -4.294887e-10))
34.331002     	((8.912239e-06 7.809564e-07 -4.307177e-04) (9.193602e-07 5.586091e-07 4.644015e-04)) ((-4.769304e-11 -1.367689e-08 5.999013e-11) (5.771519e-08 -8.227052e-08 -4.295679e-10))
34.652464     	((8.912241e-06 7.809581e-07 -4.307177e-04) (9.193586e-07 5.586228e-07 4.644015e-04)) ((-4.772158e-11 -1.367691e-08 5.999033e-11) (5.771598e-08 -8.227041e-08 -4.296418e-10))
34.973925     	((8.912233e-06 7.809757e-07 -4.307177e-04) (9.193566e-07 5.586361e-07 4.644015e-04)) ((-4.774964e-11 -1.367693e-08 5.999062e-11) (5.771674e-08 -8.227028e-08 -4.297098e-10))
35.295387     	((8.912227e-06 7.809828e-07 -4.307177e-04) (9.193549e-07 5.586486e-07 4.644015e-04)) ((-4.777918e-11 -1.367695e-08 5.999093e-11) (5.771747e-08 -8.227016e-08 -4.297853e-10))
35.616849     	((8.912220e-06 7.809856e-07 -4.307177e-04) (9.193524e-07 5.586611e-07 4.644015e-04)) ((-4.780651e-11 -1.367697e-08 5.999128e-11) (5.771818e-08 -8.227000e-08 -4.298586e-10))
35.938311     	((8.912217e-06 7.809925e-07 -4.307177e-04) (9.193494e-07 5.586732e-07 4.644015e-04)) ((-4.783247e-11 -1.367699e-08 5.999170e-11) (5.771888e-08 -8.226980e-08 -4.299280e-10))
36.259772     	((8.912221e-06 7.810045e-07 -4.307177e-04) (9.193465e-07 5.586851e-07 4.644015e-04)) ((-4.785874e-11 -1.367701e-08 5.999209e-11) (5.771956e-08 -8.226961e-08 -4.299882e-10))
36.581234     	((8.912231e-06 7.810077e-07 -4.307177e-04) (9.193431e-07 5.586956e-07 4.644015e-04)) ((-4.788529e-11 -1.367703e-08 5.999238e-11) (5.772018e-08 -8.226940e-08 -4.300805e-10))
36.902696     	((8.912205e-06 7.810279e-07 -4.307177e-04) (9.193387e-07 5.587066e-07 4.644015e-04)) ((-4.791104e-11 -1.367705e-08 5.999286e-11) (5.772082e-08 -8.226913e-08 -4.301518e-10))
37.224158     	((8.912202e-06 7.810209e-07 -4.307177e-04) (9.193353e-07 5.587171e-07 4.644015e-04)) ((-4.793197e-11 -1.367707e-08 5.999328e-11) (5.772141e-08 -8.226891e-08 -4.302074e-10))
37.54562      	((8.912200e-06 7.810301e-07 -4.307177e-04) (9.193345e-07 5.587248e-07 4.644015e-04)) ((-4.794778e-11 -1.367708e-08 5.999356e-11) (5.772186e-08 -8.226885e-08 -4.302954e-10))
37.867081     	((8.912184e-06 7.810491e-07 -4.307177e-04) (9.193352e-07 5.587317e-07 4.644015e-04)) ((-4.796161e-11 -1.367709e-08 5.999377e-11) (5.772225e-08 -8.226887e-08 -4.303634e-10))
38.188543     	((8.912168e-06 7.810609e-07 -4.307177e-04) (9.193355e-07 5.587382e-07 4.644015e-04)) ((-4.797668e-11 -1.367710e-08 5.999396e-11) (5.772263e-08 -8.226885e-08 -4.304078e-10))
38.510005     	((8.912175e-06 7.810577e-07 -4.307177e-04) (9.193352e-07 5.587438e-07 4.644015e-04)) ((-4.798863e-11 -1.367711e-08 5.999405e-11) (5.772296e-08 -8.226882e-08 -4.304512e-10))
38.831467     	((8.912174e-06 7.810622e-07 -4.307177e-04) (9.193348e-07 5.587487e-07 4.644015e-04)) ((-4.800008e-11 -1.367712e-08 5.999413e-11) (5.772326e-08 -8.226879e-08 -4.304847e-10))
39.152929     	((8.912157e-06 7.810790e-07 -4.307177e-04) (9.193343e-07 5.587536e-07 4.644015e-04)) ((-4.801180e-11 -1.367713e-08 5.999421e-11) (5.772355e-08 -8.226875e-08 -4.305209e-10))
39.47439      	((8.912148e-06 7.810835e-07 -4.307177e-04) (9.193332e-07 5.587583e-07 4.644015e-04)) ((-4.802304e-11 -1.367714e-08 5.999436e-11) (5.772384e-08 -8.226867e-08 -4.305565e-10))
39.795852     	((8.912154e-06 7.810821e-07 -4.307177e-04) (9.193321e-07 5.587624e-07 4.644015e-04)) ((-4.803333e-11 -1.367715e-08 5.999451e-11) (5.772410e-08 -8.226860e-08 -4.305909e-10))
40.117314     	((8.912158e-06 7.810827e-07 -4.307177e-04) (9.193308e-07 5.587664e-07 4.644015e-04)) ((-4.804270e-11 -1.367716e-08 5.999469e-11) (5.772434e-08 -8.226853e-08 -4.306216e-10))
40.438776     	((8.912147e-06 7.810895e-07 -4.307177e-04) (9.193296e-07 5.587704e-07 4.644015e-04)) ((-4.805201e-11 -1.367717e-08 5.999492e-11) (5.772459e-08 -8.226846e-08 -4.306484e-10))
40.760238     	((8.912132e-06 7.810989e-07 -4.307177e-04) (9.193282e-07 5.587743e-07 4.644015e-04)) ((-4.806127e-11 -1.367718e-08 5.999517e-11) (5.772483e-08 -8.226837e-08 -4.306748e-10))
41.081699     	((8.912129e-06 7.811006e-07 -4.307177e-04) (9.193266e-07 5.587779e-07 4.644015e-04)) ((-4.806989e-11 -1.367719e-08 5.999534e-11) (5.772505e-08 -8.226828e-08 -4.307040e-10))
41.403161     	((8.912136e-06 7.810979e-07 -4.307177e-04) (9.193252e-07 5.587812e-07 4.644015e-04)) ((-4.807789e-11 -1.367720e-08 5.999549e-11) (5.772525e-08 -8.226820e-08 -4.307319e-10))
41.724623     	((8.912134e-06 7.811030e-07 -4.307177e-04) (9.193236e-07 5.587844e-07 4.644015e-04)) ((-4.808531e-11 -1.367721e-08 5.999571e-11) (5.772545e-08 -8.226812e-08 -4.307590e-10))
42.046085     	((8.912128e-06 7.811067e-07 -4.307177e-04) (9.193219e-07 5.587874e-07 4.644015e-04)) ((-4.809272e-11 -1.367722e-08 5.999594e-11) (5.772564e-08 -8.226803e-08 -4.307853e-10))
42.367547     	((8.912111e-06 7.811208e-07 -4.307177e-04) (9.193201e-07 5.587904e-07 4.644015e-04)) ((-4.809985e-11 -1.367722e-08 5.999617e-11) (5.772583e-08 -8.226792e-08 -4.308146e-10))
42.689008     	((8.912110e-06 7.811223e-07 -4.307177e-04) (9.193182e-07 5.587934e-07 4.644015e-04)) ((-4.810661e-11 -1.367723e-08 5.999635e-11) (5.772602e-08 -8.226782e-08 -4.308387e-10))
43.01047      	((8.912114e-06 7.811231e-07 -4.307177e-04) (9.193164e-07 5.587965e-07 4.644015e-04)) ((-4.811310e-11 -1.367724e-08 5.999652e-11) (5.772621e-08 -8.226772e-08 -4.308578e-10))
43.331932     	((8.912113e-06 7.811240e-07 -4.307177e-04) (9.193145e-07 5.587994e-07 4.644015e-04)) ((-4.811927e-11 -1.367725e-08 5.999677e-11) (5.772638e-08 -8.226762e-08 -4.308798e-10))
43.653394     	((8.912103e-06 7.811272e-07 -4.307177e-04) (9.193125e-07 5.588019e-07 4.644015e-04)) ((-4.812516e-11 -1.367725e-08 5.999705e-11) (5.772654e-08 -8.226751e-08 -4.309038e-10))
43.974856     	((8.912093e-06 7.811330e-07 -4.307177e-04) (9.193106e-07 5.588045e-07 4.644015e-04)) ((-4.813086e-11 -1.367726e-08 5.999732e-11) (5.772670e-08 -8.226740e-08 -4.309275e-10))
44.296318     	((8.912093e-06 7.811368e-07 -4.307177e-04) (9.193085e-07 5.588069e-07 4.644015e-04)) ((-4.813625e-11 -1.367727e-08 5.999749e-11) (5.772686e-08 -8.226729e-08 -4.309500e-10))
44.617779     	((8.912097e-06 7.811379e-07 -4.307177e-04) (9.193066e-07 5.588092e-07 4.644015e-04)) ((-4.814146e-11 -1.367727e-08 5.999765e-11) (5.772701e-08 -8.226719e-08 -4.309728e-10))
44.939241     	((8.912094e-06 7.811387e-07 -4.307177e-04) (9.193046e-07 5.588114e-07 4.644015e-04)) ((-4.814634e-11 -1.367728e-08 5.999788e-11) (5.772715e-08 -8.226708e-08 -4.309930e-10))
45.260703     	((8.912090e-06 7.811372e-07 -4.307177e-04) (9.193027e-07 5.588136e-07 4.644015e-04)) ((-4.815109e-11 -1.367728e-08 5.999813e-11) (5.772729e-08 -8.226698e-08 -4.310103e-10))
45.582165     	((8.912086e-06 7.811392e-07 -4.307177e-04) (9.193007e-07 5.588158e-07 4.644015e-04)) ((-4.815558e-11 -1.367729e-08 5.999839e-11) (5.772742e-08 -8.226687e-08 -4.310279e-10))
45.903627     	((8.912085e-06 7.811404e-07 -4.307177e-04) (9.192988e-07 5.588179e-07 4.644015e-04)) ((-4.815998e-11 -1.367730e-08 5.999862e-11) (5.772756e-08 -8.226676e-08 -4.310452e-10))
46.225089     	((8.912081e-06 7.811447e-07 -4.307177e-04) (9.192968e-07 5.588199e-07 4.644015e-04)) ((-4.816425e-11 -1.367730e-08 5.999885e-11) (5.772769e-08 -8.226665e-08 -4.310624e-10))