# Forces      
# CofR        : (0.000000e+00 0.000000e+00 0.000000e+00)
# Time        forces(pressure viscous)	moments(pressure viscous)
0             	((0.000000e+00 0.000000e+00 0.000000e+00) (3.991501e-02 -3.504679e-12 3.846131e-07)) ((0.000000e+00 0.000000e+00 0.000000e+00) (-9.089784e-14 -8.968395e-04 -4.405120e-13))
0.00764273    	((1.831238e+01 1.068590e-03 1.430052e+00) (1.120779e-01 -1.118005e-05 -1.731109e-02)) ((-3.357463e-08 2.644649e-04 5.098830e-10) (-2.373998e-07 -3.725109e-03 3.651008e-07))
0.016814      	((-8.709862e+00 -1.867473e-03 -5.635395e+00) (1.037661e-01 -1.554797e-05 -2.174539e-02)) ((1.072388e-08 -1.359524e-04 -3.830176e-08) (-2.111642e-07 -3.794101e-03 6.856323e-07))
0.0278195     	((1.977547e+00 5.144716e-04 -2.884158e+00) (8.514251e-02 -4.332900e-06 -1.510923e-02)) ((7.801955e-08 9.590876e-06 -4.533857e-08) (-1.830932e-07 -3.033534e-03 3.601286e-07))
0.0409307     	((-7.564863e-01 -1.002217e-03 -3.033988e+00) (7.932274e-02 -2.476165e-06 -1.423864e-02)) ((6.636651e-08 -1.503388e-05 -7.341877e-08) (-3.078408e-07 -2.822140e-03 3.377692e-07))
0.056156      	((5.405803e-01 5.743062e-04 -2.798288e+00) (7.565288e-02 -1.769865e-06 -1.429302e-02)) ((-3.220584e-08 -1.534811e-06 -2.639408e-08) (-2.962217e-07 -2.698607e-03 3.358081e-07))
0.0734812     	((-4.662382e-02 -1.455757e-04 -2.919017e+00) (7.452121e-02 7.648597e-07 -1.465861e-02)) ((-5.642254e-09 -3.780941e-06 -1.369723e-08) (-2.611143e-07 -2.662776e-03 1.081770e-07))
0.0928891     	((2.377899e-01 1.450190e-04 -2.836062e+00) (7.348362e-02 5.967332e-06 -1.522446e-02)) ((4.387459e-09 -9.338490e-07 -4.381008e-09) (-2.701286e-07 -2.616568e-03 5.399391e-09))
0.113518      	((1.190504e-01 -2.554391e-05 -2.892726e+00) (7.296113e-02 6.197076e-06 -1.580674e-02)) ((-7.380862e-09 2.144207e-07 -6.926376e-09) (-2.349611e-07 -2.595533e-03 -1.119190e-07))
0.134165      	((1.990700e-01 -1.544498e-04 -2.861248e+00) (7.272477e-02 1.939757e-06 -1.628902e-02)) ((-3.027286e-09 1.386048e-06 -8.578733e-09) (-2.182114e-07 -2.583838e-03 -1.528889e-07))
0.154769      	((1.802088e-01 -2.645766e-04 -2.882320e+00) (7.266410e-02 2.822015e-06 -1.674712e-02)) ((2.858309e-10 2.299152e-06 -1.303119e-09) (-2.097211e-07 -2.577751e-03 -1.799402e-07))
0.175291      	((2.110531e-01 -4.070285e-04 -2.862656e+00) (7.261926e-02 9.403055e-07 -1.708968e-02)) ((-1.223116e-08 3.152706e-06 -3.251447e-09) (-1.896756e-07 -2.570641e-03 -2.169263e-07))
0.195665      	((2.140879e-01 -6.857176e-04 -2.860690e+00) (7.250617e-02 -1.401597e-06 -1.728711e-02)) ((6.770037e-09 4.092218e-06 5.032030e-09) (-2.067251e-07 -2.560900e-03 -1.982572e-07))
0.215919      	((2.260221e-01 -6.023392e-04 -2.838938e+00) (7.225773e-02 5.871794e-07 -1.741578e-02)) ((-2.347570e-08 4.896370e-06 4.171483e-09) (-2.090053e-07 -2.547594e-03 -2.110969e-07))
0.23611       	((2.293167e-01 -9.141761e-04 -2.828449e+00) (7.192639e-02 -2.699990e-06 -1.756920e-02)) ((3.547569e-08 5.656240e-06 -1.903393e-09) (-2.378823e-07 -2.532755e-03 -1.527398e-07))
0.25632       	((2.325624e-01 -1.010956e-03 -2.808294e+00) (7.155738e-02 -2.952911e-06 -1.768886e-02)) ((1.369772e-08 6.382676e-06 5.748222e-09) (-2.672709e-07 -2.517553e-03 -9.484245e-08))
0.276584      	((2.328126e-01 -1.029173e-03 -2.794978e+00) (7.118900e-02 -1.088987e-06 -1.781694e-02)) ((-8.124545e-09 6.817591e-06 -3.782956e-09) (-2.725710e-07 -2.503241e-03 -1.354791e-07))
0.296894      	((2.335333e-01 -1.319022e-03 -2.781045e+00) (7.087397e-02 -4.673617e-06 -1.794429e-02)) ((5.275029e-08 7.245867e-06 -4.412158e-09) (-3.537927e-07 -2.491112e-03 -9.816480e-08))
0.317227      	((2.324417e-01 -1.317279e-03 -2.768345e+00) (7.058815e-02 -3.788763e-06 -1.801325e-02)) ((-5.402333e-09 7.710101e-06 -4.238086e-09) (-3.910589e-07 -2.480210e-03 -7.673060e-08))
0.337564      	((2.316701e-01 -1.465660e-03 -2.757043e+00) (7.031291e-02 -3.175162e-06 -1.808317e-02)) ((1.149693e-08 7.822306e-06 -1.462966e-08) (-3.842178e-07 -2.470209e-03 -7.727018e-08))
0.357909      	((2.307563e-01 -1.765259e-03 -2.747903e+00) (7.007240e-02 -5.587107e-06 -1.815804e-02)) ((6.507468e-08 8.156875e-06 -9.894227e-09) (-4.564064e-07 -2.461524e-03 2.198373e-08))
0.378269      	((2.296756e-01 -1.819559e-03 -2.737746e+00) (6.985204e-02 -3.227834e-06 -1.820749e-02)) ((-7.033078e-09 8.362976e-06 -1.386733e-08) (-4.828714e-07 -2.453477e-03 7.330977e-08))
0.398647      	((2.290280e-01 -2.104274e-03 -2.729238e+00) (6.963695e-02 -3.988453e-06 -1.826425e-02)) ((3.928095e-08 8.399504e-06 -1.704312e-08) (-4.970119e-07 -2.445590e-03 1.368182e-07))
0.41904       	((2.285867e-01 -2.457502e-03 -2.721260e+00) (6.944675e-02 -6.030942e-06 -1.832873e-02)) ((6.888172e-08 8.676377e-06 -5.643938e-09) (-5.907803e-07 -2.438368e-03 2.731800e-07))
0.439443      	((2.281816e-01 -2.638757e-03 -2.713739e+00) (6.927555e-02 -3.975307e-06 -1.837664e-02)) ((-6.012136e-09 8.808304e-06 -9.204721e-09) (-6.058702e-07 -2.431946e-03 3.637284e-07))
0.459858      	((2.275019e-01 -3.197084e-03 -2.706492e+00) (6.910833e-02 -5.601936e-06 -1.841393e-02)) ((7.878008e-08 8.890252e-06 -9.631622e-09) (-6.656178e-07 -2.426087e-03 4.869129e-07))
0.480283      	((2.271354e-01 -3.727552e-03 -2.700510e+00) (6.896255e-02 -8.333513e-06 -1.844906e-02)) ((6.634012e-08 9.118109e-06 -3.708666e-09) (-7.944916e-07 -2.421082e-03 6.931611e-07))
0.500718      	((2.268527e-01 -4.139503e-03 -2.694892e+00) (6.883809e-02 -6.323916e-06 -1.847092e-02)) ((5.855344e-09 9.209332e-06 -5.949256e-09) (-8.224402e-07 -2.416939e-03 8.454264e-07))
0.521163      	((2.263375e-01 -4.852063e-03 -2.689566e+00) (6.871735e-02 -7.970107e-06 -1.848530e-02)) ((1.039583e-07 9.312737e-06 -5.449537e-09) (-9.190619e-07 -2.413170e-03 1.028601e-06))
0.541615      	((2.257693e-01 -5.631683e-03 -2.684906e+00) (6.861073e-02 -1.112874e-05 -1.850468e-02)) ((8.410795e-08 9.434098e-06 -5.116288e-09) (-1.080185e-06 -2.409739e-03 1.289997e-06))
0.562076      	((2.249230e-01 -6.302149e-03 -2.680358e+00) (6.851642e-02 -1.036581e-05 -1.852294e-02)) ((5.650287e-08 9.467185e-06 -1.061433e-08) (-1.166537e-06 -2.406559e-03 1.520233e-06))
0.582543      	((2.239406e-01 -7.255315e-03 -2.675861e+00) (6.842177e-02 -1.248240e-05 -1.854062e-02)) ((1.121501e-07 9.531618e-06 -1.773264e-08) (-1.310552e-06 -2.403315e-03 1.778472e-06))
0.603018      	((2.231739e-01 -8.300748e-03 -2.672170e+00) (6.833510e-02 -1.589259e-05 -1.856845e-02)) ((9.166308e-08 9.552446e-06 -2.324780e-08) (-1.489899e-06 -2.400124e-03 2.078875e-06))
0.623498      	((2.224801e-01 -9.442679e-03 -2.668493e+00) (6.825410e-02 -1.830864e-05 -1.859302e-02)) ((9.923269e-08 9.578533e-06 -2.960224e-08) (-1.660691e-06 -2.397075e-03 2.377891e-06))
0.643983      	((2.219462e-01 -1.077683e-02 -2.665125e+00) (6.817470e-02 -2.238075e-05 -1.861547e-02)) ((1.164712e-07 9.604186e-06 -3.709891e-08) (-1.876167e-06 -2.394098e-03 2.710491e-06))
0.664474      	((2.213938e-01 -1.225002e-02 -2.662022e+00) (6.810368e-02 -2.651767e-05 -1.864331e-02)) ((1.274149e-07 9.572027e-06 -4.121028e-08) (-2.108896e-06 -2.391363e-03 3.101224e-06))
0.684969      	((2.209238e-01 -1.393151e-02 -2.658839e+00) (6.803522e-02 -3.069780e-05 -1.866279e-02)) ((1.455666e-07 9.596311e-06 -4.679322e-08) (-2.372178e-06 -2.388781e-03 3.540945e-06))
0.705468      	((2.206608e-01 -1.587649e-02 -2.656370e+00) (6.797070e-02 -3.606588e-05 -1.868585e-02)) ((1.546257e-07 9.561116e-06 -4.864655e-08) (-2.669881e-06 -2.386331e-03 4.047235e-06))
0.725971      	((2.203287e-01 -1.804444e-02 -2.653901e+00) (6.791429e-02 -4.163533e-05 -1.870825e-02)) ((1.918111e-07 9.524457e-06 -5.046868e-08) (-3.001005e-06 -2.384181e-03 4.602154e-06))
0.746477      	((2.199878e-01 -2.050301e-02 -2.651414e+00) (6.785858e-02 -4.858371e-05 -1.872162e-02)) ((1.952583e-07 9.532131e-06 -5.504247e-08) (-3.386587e-06 -2.382123e-03 5.208602e-06))
0.766985      	((2.197100e-01 -2.332581e-02 -2.649703e+00) (6.781015e-02 -5.691032e-05 -1.874416e-02)) ((2.281293e-07 9.447135e-06 -5.538045e-08) (-3.822257e-06 -2.380301e-03 5.900202e-06))
0.787495      	((2.193385e-01 -2.647821e-02 -2.647642e+00) (6.776722e-02 -6.564169e-05 -1.875720e-02)) ((2.763613e-07 9.432998e-06 -6.227396e-08) (-4.331299e-06 -2.378748e-03 6.660732e-06))
0.808007      	((2.190286e-01 -3.008651e-02 -2.646040e+00) (6.772504e-02 -7.673252e-05 -1.876806e-02)) ((2.855788e-07 9.400825e-06 -6.860275e-08) (-4.918876e-06 -2.377235e-03 7.515139e-06))
0.828519      	((2.187495e-01 -3.410254e-02 -2.645036e+00) (6.769244e-02 -8.861257e-05 -1.878762e-02)) ((3.505407e-07 9.302883e-06 -7.384799e-08) (-5.576041e-06 -2.376061e-03 8.497486e-06))
0.849032      	((2.183966e-01 -3.868972e-02 -2.643492e+00) (6.766096e-02 -1.013392e-04 -1.879204e-02)) ((3.810045e-07 9.314521e-06 -8.696193e-08) (-6.330765e-06 -2.375031e-03 9.621402e-06))
0.869543      	((2.181985e-01 -4.392394e-02 -2.642889e+00) (6.763240e-02 -1.165134e-04 -1.880512e-02)) ((4.099726e-07 9.228884e-06 -9.293554e-08) (-7.170852e-06 -2.374066e-03 1.094699e-05))
0.890054      	((2.179953e-01 -4.972993e-02 -2.642193e+00) (6.761181e-02 -1.319530e-04 -1.881808e-02)) ((5.061798e-07 9.160320e-06 -1.034051e-07) (-8.106235e-06 -2.373421e-03 1.246435e-05))
0.910562      	((2.178843e-01 -5.623549e-02 -2.641262e+00) (6.758947e-02 -1.503255e-04 -1.881890e-02)) ((5.232689e-07 9.168798e-06 -1.201834e-07) (-9.165829e-06 -2.372784e-03 1.416976e-05))
0.931067      	((2.180180e-01 -6.357388e-02 -2.641370e+00) (6.757390e-02 -1.717778e-04 -1.883438e-02)) ((5.930170e-07 9.050089e-06 -1.258541e-07) (-1.032939e-05 -2.372336e-03 1.611259e-05))
0.951568      	((2.181151e-01 -7.170357e-02 -2.640692e+00) (6.756220e-02 -1.940611e-04 -1.883589e-02)) ((6.946866e-07 9.039514e-06 -1.413033e-07) (-1.163460e-05 -2.372137e-03 1.826469e-05))
0.972064      	((2.184933e-01 -8.086543e-02 -2.640484e+00) (6.754985e-02 -2.207642e-04 -1.883632e-02)) ((7.299282e-07 9.026876e-06 -1.489409e-07) (-1.310170e-05 -2.371940e-03 2.068680e-05))
0.992553      	((2.191127e-01 -9.109106e-02 -2.641019e+00) (6.754809e-02 -2.499718e-04 -1.884867e-02)) ((8.700597e-07 8.923757e-06 -1.494792e-07) (-1.472341e-05 -2.372112e-03 2.342629e-05))
1.013035      	((2.197252e-01 -1.025278e-01 -2.640597e+00) (6.754665e-02 -2.826336e-04 -1.883841e-02)) ((9.644902e-07 8.968815e-06 -1.594639e-07) (-1.657109e-05 -2.372460e-03 2.644099e-05))
1.033508      	((2.207124e-01 -1.153508e-01 -2.641392e+00) (6.754906e-02 -3.218411e-04 -1.883702e-02)) ((1.050158e-06 8.913349e-06 -1.554736e-07) (-1.863667e-05 -2.372964e-03 2.980790e-05))
1.053971      	((2.218840e-01 -1.296553e-01 -2.642144e+00) (6.756216e-02 -3.638930e-04 -1.883494e-02)) ((1.231947e-06 8.851128e-06 -1.583393e-07) (-2.092762e-05 -2.373963e-03 3.356497e-05))
1.074422      	((2.232129e-01 -1.455644e-01 -2.642474e+00) (6.757409e-02 -4.122938e-04 -1.881157e-02)) ((1.319983e-06 8.883259e-06 -1.679175e-07) (-2.354470e-05 -2.375085e-03 3.770700e-05))
1.09486       	((2.251172e-01 -1.632979e-01 -2.644149e+00) (6.759634e-02 -4.684128e-04 -1.880393e-02)) ((1.511966e-06 8.788101e-06 -1.567059e-07) (-2.647220e-05 -2.376524e-03 4.231452e-05))
1.115283      	((2.274258e-01 -1.826365e-01 -2.645515e+00) (6.763101e-02 -5.280094e-04 -1.878347e-02)) ((1.721476e-06 8.767033e-06 -1.480929e-07) (-2.972948e-05 -2.378550e-03 4.738698e-05))
1.135689      	((2.303787e-01 -2.036986e-01 -2.647095e+00) (6.766938e-02 -5.932765e-04 -1.874814e-02)) ((1.869826e-06 8.803907e-06 -1.297624e-07) (-3.334876e-05 -2.380915e-03 5.296003e-05))
1.156075      	((2.340167e-01 -2.266823e-01 -2.649643e+00) (6.772213e-02 -6.659667e-04 -1.872145e-02)) ((2.140468e-06 8.755810e-06 -1.168315e-07) (-3.735193e-05 -2.383904e-03 5.909718e-05))
1.176441      	((2.388935e-01 -2.511556e-01 -2.652432e+00) (6.778722e-02 -7.463793e-04 -1.867143e-02)) ((2.328766e-06 8.830022e-06 -1.144100e-07) (-4.179145e-05 -2.387706e-03 6.587669e-05))
1.196783      	((2.447036e-01 -2.774303e-01 -2.655944e+00) (6.785964e-02 -8.323228e-04 -1.861320e-02)) ((2.566393e-06 8.911680e-06 -1.019997e-07) (-4.662437e-05 -2.392133e-03 7.342118e-05))
1.217101      	((2.517132e-01 -3.052547e-01 -2.660787e+00) (6.795082e-02 -9.224890e-04 -1.855758e-02)) ((2.874484e-06 8.935208e-06 -9.599703e-08) (-5.185640e-05 -2.397549e-03 8.181343e-05))
1.237392      	((2.599756e-01 -3.345598e-01 -2.665487e+00) (6.805499e-02 -1.018427e-03 -1.847534e-02)) ((3.135504e-06 9.089548e-06 -9.484729e-08) (-5.756136e-05 -2.403814e-03 9.112663e-05))
1.257654      	((2.697285e-01 -3.633589e-01 -2.671709e+00) (6.817365e-02 -1.112153e-03 -1.839061e-02)) ((3.420145e-06 9.197633e-06 -9.733872e-08) (-6.355141e-05 -2.410890e-03 1.012346e-04))
1.277886      	((2.808101e-01 -3.911877e-01 -2.679271e+00) (6.831377e-02 -1.201981e-03 -1.830634e-02)) ((3.684799e-06 9.267468e-06 -1.239006e-07) (-6.966950e-05 -2.418974e-03 1.119094e-04))
1.298086      	((2.929748e-01 -4.173345e-01 -2.687447e+00) (6.846838e-02 -1.291971e-03 -1.820016e-02)) ((3.930809e-06 9.407128e-06 -1.399919e-07) (-7.594019e-05 -2.427678e-03 1.229854e-04))
1.318253      	((3.056476e-01 -4.402525e-01 -2.696849e+00) (6.864160e-02 -1.372592e-03 -1.809581e-02)) ((4.117937e-06 9.403562e-06 -1.651151e-07) (-8.211552e-05 -2.436928e-03 1.341090e-04))
1.338388      	((3.182342e-01 -4.592423e-01 -2.706599e+00) (6.883859e-02 -1.443719e-03 -1.799229e-02)) ((4.237098e-06 9.396314e-06 -1.793494e-07) (-8.794254e-05 -2.446842e-03 1.450231e-04))
1.358492      	((3.305399e-01 -4.729699e-01 -2.717192e+00) (6.904993e-02 -1.505919e-03 -1.787396e-02)) ((4.317549e-06 9.454520e-06 -1.725185e-07) (-9.325616e-05 -2.457094e-03 1.555541e-04))
1.378566      	((3.410834e-01 -4.808057e-01 -2.728178e+00) (6.927274e-02 -1.543724e-03 -1.775845e-02)) ((4.304192e-06 9.396258e-06 -1.704689e-07) (-9.766275e-05 -2.467745e-03 1.652160e-04))
1.398612      	((3.492230e-01 -4.832546e-01 -2.738705e+00) (6.950126e-02 -1.556982e-03 -1.763800e-02)) ((4.149430e-06 9.346716e-06 -1.638201e-07) (-1.009652e-04 -2.478601e-03 1.737190e-04))
1.418634      	((3.552974e-01 -4.799696e-01 -2.749099e+00) (6.972140e-02 -1.547107e-03 -1.751070e-02)) ((3.936804e-06 9.296704e-06 -1.110441e-07) (-1.030967e-04 -2.489013e-03 1.809745e-04))
1.438633      	((3.594065e-01 -4.715971e-01 -2.759687e+00) (6.993882e-02 -1.504845e-03 -1.740462e-02)) ((3.727670e-06 9.092378e-06 -5.588050e-08) (-1.038311e-04 -2.499062e-03 1.869522e-04))
1.458615      	((3.612478e-01 -4.608800e-01 -2.768723e+00) (7.014478e-02 -1.434124e-03 -1.730448e-02)) ((3.459851e-06 8.860821e-06 -2.228623e-08) (-1.032137e-04 -2.508394e-03 1.917185e-04))
1.478583      	((3.610864e-01 -4.496272e-01 -2.776997e+00) (7.032569e-02 -1.343133e-03 -1.721332e-02)) ((3.249991e-06 8.563725e-06 1.449174e-08) (-1.015629e-04 -2.516542e-03 1.954027e-04))
1.498542      	((3.602313e-01 -4.389701e-01 -2.786161e+00) (7.049762e-02 -1.236078e-03 -1.716332e-02)) ((3.181943e-06 8.110920e-06 3.418431e-08) (-9.922703e-05 -2.524061e-03 1.981461e-04))
1.518494      	((3.578513e-01 -4.304712e-01 -2.794365e+00) (7.065200e-02 -1.130615e-03 -1.712034e-02)) ((3.138677e-06 7.652490e-06 4.676343e-08) (-9.675812e-05 -2.530796e-03 1.998886e-04))
1.538444      	((3.546434e-01 -4.236429e-01 -2.802239e+00) (7.078032e-02 -1.042323e-03 -1.709171e-02)) ((3.189078e-06 7.252666e-06 1.032990e-07) (-9.462436e-05 -2.536467e-03 2.005306e-04))
1.558391      	((3.504305e-01 -4.173427e-01 -2.811249e+00) (7.089915e-02 -9.785683e-04 -1.710902e-02)) ((3.321253e-06 6.884519e-06 1.830785e-07) (-9.298174e-05 -2.541548e-03 1.999676e-04))
1.578339      	((3.456860e-01 -4.110944e-01 -2.818152e+00) (7.099158e-02 -9.424625e-04 -1.712831e-02)) ((3.444958e-06 6.540184e-06 2.348691e-07) (-9.177989e-05 -2.545589e-03 1.984196e-04))
1.598287      	((3.415967e-01 -4.043219e-01 -2.823426e+00) (7.104966e-02 -9.272309e-04 -1.715206e-02)) ((3.535633e-06 6.174325e-06 2.281492e-07) (-9.079263e-05 -2.548120e-03 1.960642e-04))
1.618236      	((3.396831e-01 -3.973064e-01 -2.828271e+00) (7.110277e-02 -9.177623e-04 -1.720652e-02)) ((3.520344e-06 5.995150e-06 1.934256e-07) (-8.969197e-05 -2.550099e-03 1.933107e-04))
1.638187      	((3.399298e-01 -3.908639e-01 -2.830225e+00) (7.114157e-02 -9.033161e-04 -1.723694e-02)) ((3.429768e-06 5.952998e-06 2.031965e-07) (-8.826535e-05 -2.551610e-03 1.908931e-04))
1.65814       	((3.418646e-01 -3.859511e-01 -2.831036e+00) (7.115640e-02 -8.735651e-04 -1.724252e-02)) ((3.266861e-06 5.911281e-06 2.462603e-07) (-8.634228e-05 -2.552680e-03 1.895235e-04))
1.678095      	((3.447535e-01 -3.825728e-01 -2.833763e+00) (7.117208e-02 -8.238255e-04 -1.725822e-02)) ((3.177960e-06 5.902142e-06 3.176032e-07) (-8.392604e-05 -2.554297e-03 1.894493e-04))
1.698053      	((3.483621e-01 -3.812524e-01 -2.836431e+00) (7.118404e-02 -7.689877e-04 -1.725365e-02)) ((3.129535e-06 5.760729e-06 3.861977e-07) (-8.151979e-05 -2.555919e-03 1.900900e-04))
1.718013      	((3.508098e-01 -3.820295e-01 -2.839800e+00) (7.118864e-02 -7.283576e-04 -1.724906e-02)) ((3.154312e-06 5.440205e-06 4.276704e-07) (-7.973256e-05 -2.556831e-03 1.906224e-04))
1.737975      	((3.515425e-01 -3.845275e-01 -2.845503e+00) (7.120629e-02 -7.096884e-04 -1.729552e-02)) ((3.409337e-06 5.006229e-06 4.487538e-07) (-7.898173e-05 -2.557511e-03 1.906897e-04))
1.757939      	((3.511880e-01 -3.867790e-01 -2.850742e+00) (7.122000e-02 -7.179031e-04 -1.735345e-02)) ((3.587440e-06 4.484717e-06 4.123499e-07) (-7.937004e-05 -2.557307e-03 1.900977e-04))
1.777904      	((3.509218e-01 -3.882685e-01 -2.855589e+00) (7.121537e-02 -7.419195e-04 -1.741829e-02)) ((3.749431e-06 3.974683e-06 3.485625e-07) (-8.049569e-05 -2.555963e-03 1.892278e-04))
1.797869      	((3.509987e-01 -3.881003e-01 -2.860800e+00) (7.121300e-02 -7.662300e-04 -1.752031e-02)) ((4.015482e-06 3.495353e-06 3.060216e-07) (-8.189921e-05 -2.554320e-03 1.884546e-04))
