# Forces      
# CofR        : (0.000000e+00 0.000000e+00 0.000000e+00)
# Time        forces(pressure viscous)	moments(pressure viscous)
0             	((0.000000e+00 0.000000e+00 0.000000e+00) (-1.191912e-15 3.149983e-06 2.641874e-16)) ((0.000000e+00 0.000000e+00 0.000000e+00) (7.077680e-08 -1.036435e-17 -1.506338e-12))
0.012         	((-1.049479e-09 9.160175e-04 2.287368e-04) (-6.376794e-12 3.615067e-06 -8.913666e-10)) ((-1.080378e-08 7.790096e-10 -1.726984e-10) (1.043127e-07 5.689760e-15 -3.139959e-12))
0.0264        	((-1.235031e-08 -6.284666e-05 -1.437113e-05) (-1.859894e-11 3.689112e-06 -1.218888e-09)) ((7.544948e-10 -4.875059e-11 1.146540e-11) (1.168048e-07 1.892571e-13 -4.149427e-12))
0.04368       	((1.790975e-08 -1.919350e-04 -2.079686e-05) (-7.576329e-12 3.279082e-06 -9.399323e-10)) ((2.497738e-09 -7.125597e-11 4.638393e-11) (1.040617e-07 -4.092918e-13 -3.537654e-12))
0.064416      	((-5.170716e-09 -1.804162e-06 -7.426354e-06) (6.946525e-11 2.904690e-06 -5.759529e-10)) ((-1.225757e-11 -2.514246e-11 -2.052889e-12) (9.340610e-08 -6.965580e-13 -4.126728e-12))
0.0892992     	((1.484603e-09 2.621774e-06 -4.436764e-06) (1.015960e-10 2.681891e-06 -5.590164e-10)) ((-1.033030e-10 -1.527189e-11 -2.720923e-12) (8.829303e-08 -2.791528e-13 -4.402372e-12))
0.119159      	((4.468122e-10 -2.854250e-06 -2.697401e-06) (8.272785e-11 2.476547e-06 -6.121306e-10)) ((5.399055e-11 -8.937501e-12 4.953999e-13) (8.260943e-08 -2.514603e-13 -3.872956e-12))
0.154991      	((-1.040732e-09 -1.545984e-06 -1.669760e-06) (5.948734e-11 2.258614e-06 -5.271664e-10)) ((3.281484e-11 -5.645830e-12 4.321941e-14) (7.627772e-08 -2.122866e-13 -3.383616e-12))
0.197989      	((6.163207e-10 -3.758264e-07 -1.016430e-06) (2.857139e-11 2.038407e-06 -5.259564e-10)) ((1.143541e-11 -3.401428e-12 5.543327e-14) (6.982905e-08 -1.670324e-13 -1.797784e-12))
0.249587      	((4.836798e-10 4.883821e-08 -6.152373e-07) (1.159504e-11 1.822149e-06 -5.604042e-10)) ((2.920736e-12 -2.019668e-12 -1.976248e-13) (6.337544e-08 -2.572335e-13 -6.195416e-13))
0.311504      	((2.527640e-10 2.430778e-07 -3.557789e-07) (5.691870e-12 1.616272e-06 -6.020783e-10)) ((3.181597e-13 -1.147561e-12 -2.329305e-13) (5.704011e-08 -3.298339e-13 -5.489653e-14))
0.385805      	((1.901227e-10 3.361000e-07 -1.967857e-07) (3.575388e-12 1.425960e-06 -6.379551e-10)) ((-4.090418e-13 -5.891651e-13 -2.065590e-13) (5.097755e-08 -3.614082e-13 4.935730e-13))
0.474966      	((3.517176e-11 3.793907e-07 -9.431613e-08) (-1.061679e-12 1.255143e-06 -6.717010e-10)) ((-1.124946e-12 -2.413106e-13 -1.744001e-13) (4.535903e-08 -3.353267e-13 6.563090e-13))
0.581959      	((-8.062380e-12 3.964669e-07 -3.389748e-08) (-5.261787e-12 1.105642e-06 -7.090790e-10)) ((-1.766687e-12 -3.934270e-14 -1.532249e-13) (4.029490e-08 -2.581982e-13 1.332166e-13))
0.710351      	((-4.419736e-11 3.946821e-07 3.853309e-09) (-7.329477e-13 9.776309e-07 -7.415561e-10)) ((-2.191471e-12 8.814317e-14 -1.252804e-13) (3.584752e-08 -1.879501e-13 -7.106136e-13))
0.864421      	((-3.859766e-11 3.803808e-07 2.453701e-08) (5.839905e-12 8.694850e-07 -7.646230e-10)) ((-2.367200e-12 1.569682e-13 -1.234427e-13) (3.201820e-08 -1.145229e-13 -9.424574e-13))
1.049306      	((-3.400864e-11 3.594750e-07 3.660809e-08) (9.920240e-12 7.784071e-07 -7.811283e-10)) ((-2.331480e-12 1.957736e-13 -1.189849e-13) (2.874914e-08 -4.991726e-14 -3.807007e-13))
1.271167      	((-1.079783e-11 3.362876e-07 4.187642e-08) (9.606599e-12 7.015003e-07 -7.959393e-10)) ((-2.196366e-12 2.133078e-13 -1.100362e-13) (2.595192e-08 5.432084e-15 4.024807e-13))
1.5374        	((-9.734576e-12 3.126327e-07 4.393908e-08) (5.083376e-12 6.356795e-07 -8.154541e-10)) ((-2.044878e-12 2.207955e-13 -1.092533e-13) (2.353115e-08 4.677748e-14 9.746111e-13))
1.85688       	((-3.203396e-12 2.895753e-07 4.310672e-08) (1.230082e-12 5.781171e-07 -8.449462e-10)) ((-1.872760e-12 2.177259e-13 -1.096850e-13) (2.140373e-08 6.825184e-14 1.222965e-12))
2.240256      	((2.808916e-12 2.677106e-07 4.111101e-08) (1.837426e-12 5.269500e-07 -8.814674e-10)) ((-1.719391e-12 2.093851e-13 -1.090584e-13) (1.950939e-08 9.526461e-14 1.181246e-12))
2.700307      	((6.615008e-14 2.472759e-07 3.800012e-08) (2.848056e-12 4.810346e-07 -9.186172e-10)) ((-1.591946e-12 1.979518e-13 -1.079126e-13) (1.780804e-08 1.380428e-13 7.580236e-13))
3.252369      	((4.428214e-12 2.281995e-07 3.473849e-08) (3.195542e-12 4.396268e-07 -9.578184e-10)) ((-1.462822e-12 1.861761e-13 -9.933284e-14) (1.627313e-08 1.576944e-13 1.242076e-14))
3.914842      	((8.738971e-12 2.102712e-07 3.118289e-08) (2.733206e-12 4.021995e-07 -1.004372e-09)) ((-1.335867e-12 1.736149e-13 -8.983288e-14) (1.488558e-08 1.513875e-13 -7.739908e-13))
4.709811      	((1.693845e-11 1.936585e-07 2.780336e-08) (2.405017e-12 3.683647e-07 -1.056720e-09)) ((-1.220631e-12 1.611344e-13 -8.070163e-14) (1.363110e-08 1.373191e-13 -1.449464e-12))
5.663773      	((3.033279e-11 1.783821e-07 2.450441e-08) (4.015785e-12 3.378362e-07 -1.114813e-09)) ((-1.120860e-12 1.489107e-13 -7.357725e-14) (1.249916e-08 8.661160e-14 -1.957275e-12))
6.808528      	((3.853633e-11 1.643625e-07 2.146606e-08) (5.160243e-12 3.103772e-07 -1.177977e-09)) ((-1.033568e-12 1.378260e-13 -6.528222e-14) (1.148085e-08 -1.630978e-14 -2.259007e-12))
8.182233      	((3.562984e-11 1.515073e-07 1.859525e-08) (6.557608e-12 2.857297e-07 -1.244149e-09)) ((-9.565279e-13 1.262192e-13 -5.690364e-14) (1.056690e-08 -1.154173e-13 -2.407708e-12))
9.83068       	((3.121423e-11 1.398264e-07 1.598258e-08) (5.217886e-12 2.635885e-07 -1.314294e-09)) ((-8.852366e-13 1.157695e-13 -4.925270e-14) (9.746230e-09 -1.580022e-13 -2.341591e-12))
11.808816     	((2.306793e-11 1.291325e-07 1.356912e-08) (1.629152e-12 2.436300e-07 -1.388386e-09)) ((-8.198133e-13 1.073827e-13 -4.260128e-14) (9.006639e-09 -1.717123e-13 -2.099582e-12))
14.182579     	((5.880752e-12 1.193750e-07 1.138291e-08) (-1.742237e-12 2.255592e-07 -1.468420e-09)) ((-7.602424e-13 9.898130e-14 -3.689505e-14) (8.336973e-09 -1.669676e-13 -1.780878e-12))
17.031095     	((5.511128e-12 1.104780e-07 9.372093e-09) (-5.228968e-12 2.091312e-07 -1.556614e-09)) ((-7.063168e-13 9.177336e-14 -3.181772e-14) (7.728039e-09 -1.807329e-13 -1.446664e-12))
20.449314     	((5.525770e-12 1.023705e-07 7.517608e-09) (-8.020729e-12 1.941578e-07 -1.653008e-09)) ((-6.572533e-13 8.501064e-14 -2.773770e-14) (7.172813e-09 -2.212801e-13 -1.127671e-12))
24.551176     	((8.053853e-12 9.495764e-08 5.839775e-09) (-9.174365e-12 1.804989e-07 -1.756922e-09)) ((-6.129885e-13 7.826369e-14 -2.442236e-14) (6.666118e-09 -2.386363e-13 -7.962852e-13))
29.473411     	((6.860906e-12 8.818934e-08 4.333428e-09) (-8.820829e-12 1.680506e-07 -1.865408e-09)) ((-5.736165e-13 7.194291e-14 -2.160262e-14) (6.204230e-09 -2.315437e-13 -4.478419e-13))
35.380094     	((1.735414e-12 8.200067e-08 2.981559e-09) (-8.278230e-12 1.567257e-07 -1.977789e-09)) ((-5.382493e-13 6.635031e-14 -1.924401e-14) (5.784028e-09 -2.293177e-13 -4.300521e-14))
42.468112     	((5.179383e-12 7.638305e-08 1.805996e-09) (-7.415328e-12 1.464382e-07 -2.094453e-09)) ((-5.056120e-13 6.141908e-14 -1.740996e-14) (5.402354e-09 -2.418769e-13 4.383375e-13))
50.973735     	((1.280054e-11 7.129686e-08 7.654788e-10) (-6.015962e-12 1.371027e-07 -2.214127e-09)) ((-4.763336e-13 5.673408e-14 -1.596531e-14) (5.056062e-09 -2.601347e-13 9.771756e-13))
61.180482     	((1.704307e-11 6.667646e-08 -1.451339e-10) (-4.346680e-12 1.286329e-07 -2.336418e-09)) ((-4.497557e-13 5.266078e-14 -1.464135e-14) (4.741909e-09 -2.810146e-13 1.549414e-12))
73.428578     	((2.055840e-11 6.248712e-08 -9.498471e-10) (-2.684704e-12 1.209425e-07 -2.462204e-09)) ((-4.248935e-13 4.913747e-14 -1.356428e-14) (4.456617e-09 -3.120557e-13 2.168488e-12))
88.126294     	((2.262742e-11 5.872159e-08 -1.657153e-09) (-1.791106e-12 1.139514e-07 -2.592699e-09)) ((-4.026172e-13 4.594714e-14 -1.267158e-14) (4.197177e-09 -3.452099e-13 2.835640e-12))
105.763553    	((2.549599e-11 5.532362e-08 -2.275722e-09) (-1.491172e-12 1.075875e-07 -2.727735e-09)) ((-3.824035e-13 4.301789e-14 -1.190460e-14) (3.960990e-09 -3.866973e-13 3.512806e-12))
126.928263    	((2.982230e-11 5.230213e-08 -2.808497e-09) (-1.483461e-12 1.017925e-07 -2.868106e-09)) ((-3.646216e-13 4.054198e-14 -1.117731e-14) (3.745891e-09 -4.362546e-13 4.170592e-12))
152.325916    	((3.301083e-11 4.960451e-08 -3.269585e-09) (-1.513155e-12 9.651658e-08 -3.014296e-09)) ((-3.488155e-13 3.842556e-14 -1.051144e-14) (3.550069e-09 -4.955581e-13 4.778770e-12))
182.803099    	((3.511978e-11 4.718431e-08 -3.653423e-09) (-1.553495e-12 9.171491e-08 -3.166065e-09)) ((-3.349344e-13 3.655874e-14 -9.974058e-15) (3.371926e-09 -5.535743e-13 5.314288e-12))
219.375719    	((3.629978e-11 4.501273e-08 -3.975925e-09) (-1.595767e-12 8.734794e-08 -3.323519e-09)) ((-3.229691e-13 3.494230e-14 -9.560408e-15) (3.210059e-09 -6.053925e-13 5.765238e-12))
263.262863    	((3.610559e-11 4.307754e-08 -4.245604e-09) (-1.788205e-12 8.338067e-08 -3.487017e-09)) ((-3.126247e-13 3.365418e-14 -9.214131e-15) (3.063216e-09 -6.487762e-13 6.123317e-12))
315.927436    	((3.545568e-11 4.138184e-08 -4.457784e-09) (-1.982507e-12 7.978364e-08 -3.655891e-09)) ((-3.038010e-13 3.249960e-14 -8.970384e-15) (2.930301e-09 -6.817333e-13 6.397698e-12))
379.124923    	((3.503294e-11 3.990718e-08 -4.620020e-09) (-2.016141e-12 7.653076e-08 -3.830186e-09)) ((-2.964532e-13 3.152587e-14 -8.797187e-15) (2.810346e-09 -7.126537e-13 6.594472e-12))
454.961908    	((3.482345e-11 3.863222e-08 -4.738898e-09) (-1.958156e-12 7.359818e-08 -4.009716e-09)) ((-2.905678e-13 3.085544e-14 -8.658429e-15) (2.702469e-09 -7.379153e-13 6.722968e-12))
545.966289    	((3.466996e-11 3.753673e-08 -4.823972e-09) (-1.876337e-12 7.096412e-08 -4.194506e-09)) ((-2.857746e-13 3.038923e-14 -8.565601e-15) (2.605848e-09 -7.625778e-13 6.796271e-12))
655.171547    	((3.427246e-11 3.660478e-08 -4.880446e-09) (-1.673404e-12 6.860889e-08 -4.384287e-09)) ((-2.820249e-13 3.009138e-14 -8.527136e-15) (2.519727e-09 -7.865371e-13 6.813516e-12))
786.217856    	((3.384953e-11 3.581811e-08 -4.913071e-09) (-1.228769e-12 6.651436e-08 -4.577703e-09)) ((-2.790647e-13 3.001160e-14 -8.522445e-15) (2.443393e-09 -8.091229e-13 6.779402e-12))
943.473427    	((3.359871e-11 3.516172e-08 -4.929366e-09) (-7.280200e-13 6.466318e-08 -4.772966e-09)) ((-2.767303e-13 3.010442e-14 -8.529333e-15) (2.376157e-09 -8.316398e-13 6.697138e-12))
1132.180113   	((3.282612e-11 3.461801e-08 -4.935065e-09) (-2.116666e-13 6.303798e-08 -4.967219e-09)) ((-2.747718e-13 3.029568e-14 -8.538063e-15) (2.317341e-09 -8.529101e-13 6.567763e-12))
1358.628135   	((3.261653e-11 3.416859e-08 -4.936103e-09) (4.518884e-13 6.162070e-08 -5.157207e-09)) ((-2.730448e-13 3.055174e-14 -8.545458e-15) (2.266232e-09 -8.747262e-13 6.391975e-12))
1630.365763   	((3.238156e-11 3.379783e-08 -4.935791e-09) (1.295818e-12 6.039277e-08 -5.339665e-09)) ((-2.714221e-13 3.088151e-14 -8.561505e-15) (2.222115e-09 -8.978770e-13 6.175407e-12))
1956.450915   	((3.213348e-11 3.349199e-08 -4.944601e-09) (2.292463e-12 5.933556e-08 -5.511925e-09)) ((-2.698028e-13 3.116816e-14 -8.590229e-15) (2.184267e-09 -9.200667e-13 5.921232e-12))
2347.753098   	((3.164924e-11 3.323947e-08 -4.962464e-09) (3.415312e-12 5.843041e-08 -5.671857e-09)) ((-2.682367e-13 3.141330e-14 -8.600748e-15) (2.151984e-09 -9.381721e-13 5.637993e-12))
2810.030307   	((3.044113e-11 3.303163e-08 -4.988619e-09) (4.518660e-12 5.765941e-08 -5.817994e-09)) ((-2.666641e-13 3.161396e-14 -8.597427e-15) (2.124608e-09 -9.510056e-13 5.334430e-12))
3343.555438   	((2.900810e-11 3.285989e-08 -5.020778e-09) (5.503667e-12 5.700529e-08 -5.949667e-09)) ((-2.650538e-13 3.178606e-14 -8.578161e-15) (2.101501e-09 -9.559813e-13 5.018535e-12))
3948.557559   	((2.752787e-11 3.271734e-08 -5.051347e-09) (6.440122e-12 5.645202e-08 -6.066942e-09)) ((-2.634610e-13 3.196268e-14 -8.558617e-15) (2.082075e-09 -9.552666e-13 4.694718e-12))
4625.229716   	((2.607757e-11 3.259879e-08 -5.079643e-09) (7.332743e-12 5.598489e-08 -6.170467e-09)) ((-2.619164e-13 3.212419e-14 -8.532093e-15) (2.065791e-09 -9.474807e-13 4.371834e-12))
5343.565495   	((2.482876e-11 3.250132e-08 -5.106405e-09) (8.176323e-12 5.559143e-08 -6.261207e-09)) ((-2.604637e-13 3.225908e-14 -8.503929e-15) (2.052186e-09 -9.342854e-13 4.057760e-12))
6063.285268   	((2.384337e-11 3.242064e-08 -5.129649e-09) (8.949834e-12 5.526026e-08 -6.340313e-09)) ((-2.591190e-13 3.238186e-14 -8.478390e-15) (2.040838e-09 -9.182174e-13 3.756625e-12))
6784.181674   	((2.291772e-11 3.235288e-08 -5.143103e-09) (9.608910e-12 5.498128e-08 -6.409050e-09)) ((-2.578760e-13 3.252375e-14 -8.457017e-15) (2.031376e-09 -9.003561e-13 3.469220e-12))
7506.082854   	((2.204086e-11 3.229577e-08 -5.152649e-09) (1.013788e-11 5.474621e-08 -6.468656e-09)) ((-2.567369e-13 3.264969e-14 -8.437120e-15) (2.023485e-09 -8.805665e-13 3.196809e-12))
8228.841551   	((2.125271e-11 3.224747e-08 -5.157875e-09) (1.058106e-11 5.454788e-08 -6.520317e-09)) ((-2.557024e-13 3.275601e-14 -8.420388e-15) (2.016896e-09 -8.581523e-13 2.940365e-12))
8952.335086   	((2.049537e-11 3.220669e-08 -5.158166e-09) (1.095070e-11 5.438027e-08 -6.565077e-09)) ((-2.547777e-13 3.285962e-14 -8.407744e-15) (2.011387e-09 -8.334462e-13 2.699710e-12))
9676.459193   	((1.973605e-11 3.217211e-08 -5.155711e-09) (1.123740e-11 5.423832e-08 -6.603882e-09)) ((-2.539564e-13 3.296213e-14 -8.395940e-15) (2.006771e-09 -8.073847e-13 2.475112e-12))
10401.125354  	((1.901368e-11 3.214275e-08 -5.151227e-09) (1.146008e-11 5.411790e-08 -6.637544e-09)) ((-2.532344e-13 3.306060e-14 -8.385210e-15) (2.002898e-09 -7.803796e-13 2.265792e-12))
11126.258047  	((1.833059e-11 3.211775e-08 -5.145246e-09) (1.165754e-11 5.401557e-08 -6.666782e-09)) ((-2.525969e-13 3.315315e-14 -8.372724e-15) (1.999639e-09 -7.528173e-13 2.071644e-12))
11851.792956  	((1.763001e-11 3.209647e-08 -5.138403e-09) (1.181533e-11 5.392852e-08 -6.692206e-09)) ((-2.520371e-13 3.323380e-14 -8.361124e-15) (1.996893e-09 -7.247968e-13 1.892778e-12))
12577.674942  	((1.695793e-11 3.207830e-08 -5.131126e-09) (1.192949e-11 5.385431e-08 -6.714332e-09)) ((-2.515484e-13 3.330641e-14 -8.351308e-15) (1.994574e-09 -6.968546e-13 1.728814e-12))
13303.856737  	((1.634105e-11 3.206276e-08 -5.123856e-09) (1.200283e-11 5.379098e-08 -6.733600e-09)) ((-2.511222e-13 3.337147e-14 -8.342941e-15) (1.992611e-09 -6.693009e-13 1.578957e-12))
14030.297671  	((1.574526e-11 3.204942e-08 -5.116702e-09) (1.203996e-11 5.373684e-08 -6.750397e-09)) ((-2.507517e-13 3.342986e-14 -8.335606e-15) (1.990947e-09 -6.424673e-13 1.442620e-12))
14756.962721  	((1.518538e-11 3.203803e-08 -5.109759e-09) (1.204601e-11 5.369052e-08 -6.765043e-09)) ((-2.504307e-13 3.348255e-14 -8.329303e-15) (1.989533e-09 -6.164109e-13 1.318976e-12))
15483.821799  	((1.464538e-11 3.202827e-08 -5.103079e-09) (1.202474e-11 5.365084e-08 -6.777823e-09)) ((-2.501506e-13 3.353008e-14 -8.324061e-15) (1.988329e-09 -5.911701e-13 1.207111e-12))
16210.848982  	((1.412616e-11 3.201989e-08 -5.096733e-09) (1.197928e-11 5.361679e-08 -6.788983e-09)) ((-2.499074e-13 3.357173e-14 -8.319863e-15) (1.987303e-09 -5.668309e-13 1.105946e-12))
16938.021942  	((1.363486e-11 3.201269e-08 -5.090768e-09) (1.191472e-11 5.358755e-08 -6.798734e-09)) ((-2.496962e-13 3.360873e-14 -8.316369e-15) (1.986426e-09 -5.435728e-13 1.014653e-12))
17665.32142   	((1.317483e-11 3.200649e-08 -5.085213e-09) (1.183506e-11 5.356241e-08 -6.807257e-09)) ((-2.495129e-13 3.364136e-14 -8.313388e-15) (1.985675e-09 -5.214703e-13 9.323948e-13))
18392.730782  	((1.275546e-11 3.200113e-08 -5.080090e-09) (1.174513e-11 5.354077e-08 -6.814714e-09)) ((-2.493538e-13 3.367066e-14 -8.311042e-15) (1.985032e-09 -5.005821e-13 8.583703e-13))
19120.235622  	((1.236428e-11 3.199647e-08 -5.075258e-09) (1.164814e-11 5.352213e-08 -6.821238e-09)) ((-2.492153e-13 3.369707e-14 -8.309091e-15) (1.984480e-09 -4.809414e-13 7.918490e-13))
19847.823494  	((1.199969e-11 3.199247e-08 -5.070897e-09) (1.154671e-11 5.350606e-08 -6.826948e-09)) ((-2.490950e-13 3.372017e-14 -8.307530e-15) (1.984005e-09 -4.625565e-13 7.320990e-13))
20575.483613  	((1.166439e-11 3.198901e-08 -5.066939e-09) (1.144327e-11 5.349220e-08 -6.831945e-09)) ((-2.489906e-13 3.374055e-14 -8.306238e-15) (1.983596e-09 -4.454055e-13 6.784476e-13))
21303.206646  	((1.135791e-11 3.198603e-08 -5.063329e-09) (1.133906e-11 5.348023e-08 -6.836319e-09)) ((-2.488997e-13 3.375861e-14 -8.305249e-15) (1.983243e-09 -4.294623e-13 6.303821e-13))
22030.984506  	((1.107789e-11 3.198345e-08 -5.060023e-09) (1.123530e-11 5.346988e-08 -6.840149e-09)) ((-2.488207e-13 3.377471e-14 -8.304444e-15) (1.982939e-09 -4.146755e-13 5.873711e-13))
22758.810159  	((1.082444e-11 3.198118e-08 -5.057037e-09) (1.113336e-11 5.346093e-08 -6.843504e-09)) ((-2.487518e-13 3.378912e-14 -8.303844e-15) (1.982676e-09 -4.010037e-13 5.489232e-13))
